ID,Name,SMILES,LogS,MolWt,MolLogP,MolMR,HeavyAtomCount,NumHAcceptors,NumHDonors,NumHeteroatoms,NumRotatableBonds,NumValenceElectrons,NumAromaticRings,NumSaturatedRings,NumAliphaticRings,RingCount,TPSA,IsAmide
F-792,2-[[2-amino-3-(1H-indol-3-yl)propanoyl]amino]-4-methylpentanoic acid,CC(C)CC(NC(=O)C(N)CC1=CNC2=C1C=CC=C2)C(=O)O,-1.76,317.389,1.6532,88.9996,23,3,4,6,7,124,2,0,0,2,108.21,True
F-795,Methyl N-[2-({[(2-methyl-2-propanyl)oxy]carbonyl}amino)-4-pentynoyl]glycinate,C#CCC(NC(=O)OC(C)(C)C)C(=O)NCC(=O)OC,-1.45,284.312,0.192199999999999,71.6334,20,5,2,7,5,112,0,0,0,0,93.73,True
F-798,"N,N-dimethyl-2-[6-methyl-2-(4-methylphenyl)imidazo[3,2-a]pyridin-3-yl]acetamide",CC1=CC=C(C2=C(CC(=O)N(C)C)N3C=C(C)C=CC3=N2)C=C1,-1.3,307.397,3.24884,92.5,23,3,0,4,3,118,3,0,0,3,37.61,True
F-803,3-ethoxy-4-nitro-1-propan-2-yl-5H-pyrrol-2-one,CCOC1=C(CN(C1=O)C(C)C)[N+](=O)[O-],-4.33,214.221,0.761799999999999,52.4954,15,4,0,6,4,84,0,0,1,1,72.6799999999999,True
F-808,2-phenyl-N-(1-phenylethyl)acetamide,CC(NC(=O)CC1=CC=CC=C1)C1=CC=CC=C1,-3.19,239.318,3.1065,73.1457,18,1,1,2,4,92,2,0,0,2,29.1,True
F-815,"3,3-dimethyl-7-oxo-6-[(2-phenylacetyl)amino]-4-thia-1-azabicyclo[3.2.0]heptane-2-carboxylic acid",CC1(C)SC2C(NC(=O)CC3=CC=CC=C3)C(=O)N2C1C(=O)O,-1.63,334.397,0.860799999999999,85.8045,23,4,2,7,4,122,1,2,2,3,86.71,True
F-825,4-oxo-4-[(4-sulfamoylphenyl)amino]butanoic acid,NS(=O)(=O)C1=CC=C(NC(=O)CCC(=O)O)C=C1,-2.03,272.281999999999,0.137299999999999,63.3147,18,4,3,8,5,98,1,0,0,1,126.559999999999,True
F-854,4-Nitrobenzohydrazide,C1=CC(=CC=C1C(=O)NN)[N+](=O)[O-],-2.16,181.150999999999,0.1983,44.75,13,4,2,6,2,68,1,0,0,1,98.26,True
F-859,"1,1-dioxo-2-(2-oxopiperidin-3-yl)-1,2-benzothiazol-3-one",O=C1NCCCC1N1C(=O)C2=C(C=CC=C2)S1(=O)=O,-2.64,280.305,0.109699999999999,65.829,19,4,1,7,1,100,1,1,2,3,83.55,True
F-869,"3,3-dimethyl-6-[[2-(4-methylphenoxy)acetyl]amino]-7-oxo-4-thia-1-azabicyclo[3.2.0]heptane-2-carboxylic acid",CC1=CC=C(OCC(=O)NC2C(=O)N3C2SC(C)(C)C3C(=O)O)C=C1,-3.15,364.423,1.00551999999999,92.3325,25,5,2,8,5,134,1,2,2,3,95.94,True
F-873,3-Fluoro-n-hydroxy-n-phenylbenzamide,O=C(C1=CC(F)=CC=C1)N(O)C1=CC=CC=C1,-2.6,231.226,2.8617,61.438,17,2,1,4,2,86,2,0,0,2,40.54,True
F-874,N-hydroxy-2-(pyridin-2-ylmethylideneamino)benzamide,O=C(NO)C1=C(N=CC2=CC=CC=N2)C=CC=C1,-3.21,241.25,1.9512,67.1857,18,4,2,5,3,90,2,0,0,2,74.58,True
F-875,3-Fluoro-n-hydroxy-n-(2-methylphenyl)benzamide,CC1=C(N(O)C(=O)C2=CC(F)=CC=C2)C=CC=C1,-2.53,245.253,3.17012,66.175,18,2,1,4,2,92,2,0,0,2,40.54,True
F-876,N-Hydroxy-n-(3-methylphenyl)-3-phenylpropanamide,CC1=CC=CC(N(O)C(=O)CCC2=CC=CC=C2)=C1,-3.41,255.317,3.35002,75.2145,19,2,1,3,4,98,2,0,0,2,40.54,True
F-877,N-Hydroxy-n-(2-methylphenyl)-3-phenylpropanamide,CC1=C(N(O)C(=O)CCC2=CC=CC=C2)C=CC=C1,-2.79,255.317,3.35002,75.2145,19,2,1,3,4,98,2,0,0,2,40.54,True
F-881,"N-Hydroxy-3,5-dimethoxy-n-phenylbenzamide",COC1=CC(OC)=CC(C(=O)N(O)C2=CC=CC=C2)=C1,-3.1,273.288,2.7398,74.584,20,4,1,5,4,104,2,0,0,2,59.0,True
F-882,"2,4-Dichloro-n-hydroxy-n-(3-methylphenyl)benzamide",CC1=CC=CC(N(O)C(=O)C2=C(Cl)C=C(Cl)C=C2)=C1,-4.47,296.153,4.33782,76.237,19,2,1,5,2,98,2,0,0,2,40.54,True
F-883,"2,4-Dichloro-n-hydroxy-n-(2-methylphenyl)benzamide",CC1=C(N(O)C(=O)C2=C(Cl)C=C(Cl)C=C2)C=CC=C1,-4.17,296.153,4.33782,76.237,19,2,1,5,2,98,2,0,0,2,40.54,True
F-884,"N-Hydroxy-3,5-dimethoxy-n-(2-methylphenyl)benzamide",COC1=CC(OC)=CC(C(=O)N(O)C2=C(C)C=CC=C2)=C1,-3.65,287.315,3.04822,79.321,21,4,1,5,4,110,2,0,0,2,59.0,True
F-885,"N-Hydroxy-3,5-dimethoxy-n-(3-methylphenyl)benzamide",COC1=CC(OC)=CC(C(=O)N(O)C2=CC(C)=CC=C2)=C1,-3.61,287.315,3.04822,79.321,21,4,1,5,4,110,2,0,0,2,59.0,True
F-890,(4-acetamidophenyl) dihydrogen phosphate,CC(=O)NC1=CC=C(OP(O)(=O)O)C=C1,0.13,231.143999999999,1.11649999999999,53.4178,15,3,3,7,3,82,1,0,0,1,95.86,True
F-891,N-Hydroxy-N-methylcycloheptanecarboxamide,CN(O)C(=O)C1CCCCCC1,-1.45,171.239999999999,1.8044,45.7485,12,2,1,3,1,70,0,1,1,1,40.54,True
F-892,N-Cyclohexyl-N-hydroxycyclopropanecarboxamide,O=C(C1CC1)N(O)C1CCCCC1,-2.04,183.250999999999,1.9469,48.2295,13,2,1,3,2,74,0,2,2,2,40.54,True
F-893,N-Cyclohexyl-N-hydroxycyclobutanecarboxamide,O=C(C1CCC1)N(O)C1CCCCC1,-2.7,197.277999999999,2.337,52.8465,14,2,1,3,2,80,0,2,2,2,40.54,True
F-894,N-Cyclohexyl-N-hydroxycyclopentanecarboxamide,O=C(C1CCCC1)N(O)C1CCCCC1,-3.16,211.304999999999,2.7271,57.4635,15,2,1,3,2,86,0,2,2,2,40.54,True
F-901,N-(4-Chlorophenyl)-n-hydroxynaphthalene-2-carboxamide,O=C(C1=CC2=C(C=CC=C2)C=C1)N(O)C1=CC=C(Cl)C=C1,-5.47,297.741,4.5292,83.996,21,2,1,4,2,104,3,0,0,3,40.54,True
F-913,"3-[[2-[2-(3,4-dimethoxyphenyl)ethylamino]-2-oxoethyl]amino]-N-methylbenzamide",CNC(=O)C1=CC=CC(NCC(=O)NCCC2=CC(OC)=C(OC)C=C2)=C1,-1.85,371.437,1.83419999999999,104.5816,27,5,3,7,9,144,2,0,0,2,88.69,True
F-917,"3-[[2-[2-(3,4-dimethoxyphenyl)ethylamino]-2-oxoethyl]amino]benzamide",COC1=C(OC)C=C(CCNC(=O)CNC2=CC(C(N)=O)=CC=C2)C=C1,-2.69,357.41,1.5735,99.7093,26,5,3,7,9,138,2,0,0,2,102.68,True
F-918,"[2,5-dioxo-4,4-di(phenyl)imidazolidin-1-yl]methyl dihydrogen phosphate",OP(=O)(O)OCN1C(=O)NC(C2=CC=CC=C2)(C2=CC=CC=C2)C1=O,-0.43,362.278,1.5488,87.0378,25,4,3,9,5,130,2,1,1,3,116.169999999999,True
F-928,[2-(2-hydroxyethyl-methylamino)-2-oxoethyl] benzoate,CN(CCO)C(=O)COC(=O)C1=CC=CC=C1,-1.09,237.255,0.294099999999999,61.4473,17,4,1,5,5,92,1,0,0,1,66.84,True
F-952,2-[(2-aminoacetyl)amino]-N-[4-chloro-2-(2-chlorobenzoyl)phenyl]-N-methylacetamide,CN(C(=O)CNC(=O)CN)C1=C(C(=O)C2=C(Cl)C=CC=C2)C=C(Cl)C=C1,-2.33,394.258,2.26209999999999,101.8106,26,4,2,8,6,136,2,0,0,2,92.5,True
F-958,2-acetamido-4-methylpentanoic acid,CC(=O)NC(CC(C)C)C(=O)O,-1.13,173.211999999999,0.6218,44.6955,12,2,2,4,4,70,0,0,0,0,66.4,True
F-1010,"3,3-diethyl-1-(hydroxymethyl)piperidine-2,6-dione",CCC1(CC)CCC(=O)N(CO)C1=O,-3.96,199.249999999999,0.8916,51.1878,14,3,1,4,3,80,0,1,1,1,57.61,True
F-1011,"5,5-diethyl-1-(hydroxymethyl)-1,3-diazinane-2,4,6-trione",CCC1(CC)C(=O)NC(=O)N(CO)C1=O,-3.93,214.220999999999,-0.178999999999999,50.4855,15,4,2,6,3,84,0,1,1,1,86.71,True
F-1015,N-naphthalen-2-yl-2-sulfanylacetamide,O=C(CS)NC1=CC=C2C=CC=CC2=C1,-3.34,217.293,2.7081,66.4307,15,2,2,3,2,76,2,0,0,2,29.1,True
F-1017,"5,5-di(ethenyl)-1,3-diazinane-2,4,6-trione",C=CC1(C=C)C(=O)NC(=O)NC1=O,-2.06,180.163,-0.2892,44.5084,13,3,2,5,2,68,0,1,1,1,75.27,True
F-1019,"5-ethenyl-5-propan-2-yl-1,3-diazinane-2,4,6-trione",C=CC1(C(C)C)C(=O)NC(=O)NC1=O,-1.71,196.206,0.180799999999999,49.1494,14,3,2,5,2,76,0,1,1,1,75.27,True
F-1020,"5-ethenyl-5-(2-methylpropyl)-1,3-diazinane-2,4,6-trione",C=CC1(CC(C)C)C(=O)NC(=O)NC1=O,-2.12,210.232999999999,0.5709,53.7664,15,3,2,5,3,82,0,1,1,1,75.27,True
F-1023,"[2,5-dioxo-4,4-di(phenyl)imidazolidin-1-yl]methyl butanoate",CCCC(=O)OCN1C(=O)NC(C2=CC=CC=C2)(C2=CC=CC=C2)C1=O,-4.68,352.39,2.7828,94.9087,26,4,1,6,6,134,2,1,1,3,75.71,True
F-1028,Methyl N-(dichloroacetyl)threoninate,COC(=O)C(NC(=O)C(Cl)Cl)C(C)O,-0.62,244.074,-0.171299999999999,51.1215,14,4,2,7,4,82,0,0,0,0,75.63,True
F-1029,"2-[(2,2-dichloroacetyl)amino]-3-hydroxypropanoic acid",O=C(NC(CO)C(=O)O)C(Cl)Cl,-0.03,216.02,-0.648199999999999,42.1463,12,3,3,7,4,70,0,0,0,0,86.63,True
F-1077,"[2-(dimethylamino)-2-oxoethyl] 5-benzoyl-2,3-dihydro-1~{H}-pyrrolizine-1-carboxylate",CN(C)C(=O)COC(=O)C1CCN2C(C(=O)C3=CC=CC=C3)=CC=C12,-3.03,340.379,1.83779999999999,91.3175,25,5,0,6,5,130,2,0,1,3,68.61,True
F-1094,3-(2-dimethylamino-2-iminoethyl)sulfanyl-6-(1-hydroxyethyl)-4-methyl-7-oxo-1-azabicyclo[3.2.0]hept-2-ene-2-carboxylic acid,CC(O)C1C(=O)N2C(C(=O)O)=C(SCC(=N)N(C)C)C(C)C12,-0.28,327.406,0.41217,83.5023,22,5,3,8,5,122,0,1,2,2,104.929999999999,True
F-1097,"3-methyl-3,4-dihydro-1H-1,4-benzodiazepine-2,5-dione",CC1NC(=O)C2=C(C=CC=C2)NC1=O,-2.38,190.202,0.756999999999999,51.9999,14,2,2,4,0,72,1,0,1,2,58.2,True
F-1099,"7-chloro-3,4-dihydro-1H-1,4-benzodiazepine-2,5-dione",O=C1CNC(=O)C2=C(C=CC(Cl)=C2)N1,-3.05,210.62,1.0219,52.4149,14,2,2,5,0,72,1,0,1,2,58.2,True
F-1102,"5-ethenyl-5-pentan-2-yl-1,3-diazinane-2,4,6-trione",C=CC1(C(C)CCC)C(=O)NC(=O)NC1=O,-2.36,224.26,0.960999999999999,58.3834,16,3,2,5,4,88,0,1,1,1,75.27,True
F-1105,"7-chloro-1-methyl-5-phenyl-3H-1,4-benzodiazepin-2-one",CN1C(=O)CN=C(C2=CC=CC=C2)C2=C1C=CC(Cl)=C2,-3.71,284.746,3.1538,81.81,20,2,0,4,1,100,2,0,1,3,32.67,True
F-1109,"5-(2-chlorophenyl)-7-nitro-1,3-dihydro-1,4-benzodiazepin-2-one",C1C(=O)NC2=C(C=C(C=C2)[N+](=O)[O-])C(=N1)C3=CC=CC=C3Cl,-4.41,315.716,3.0377,83.6841,22,4,1,7,2,110,2,0,1,3,84.6,True
F-1110,4-(2-propylpentanoylamino)butanoic acid,CCCC(CCC)C(=O)NCCCC(=O)O,-1.5,229.319999999999,2.1838,63.1855,16,2,2,4,9,94,0,0,0,0,66.4,True
F-1136,N-(6-methoxypyridin-3-yl)cyclopropanecarboxamide,COC1=NC=C(NC(=O)C2CC2)C=C1,-2.14,192.218,1.43869999999999,52.1427,14,3,1,4,3,74,1,1,1,2,51.22,True
F-1139,1-[2-[(1-ethoxy-1-oxo-4-phenylbutan-2-yl)amino]propanoyl]pyrrolidine-2-carboxylic acid,CCOC(=O)C(CCC1=CC=CC=C1)NC(C)C(=O)N1CCCC1C(=O)O,-1.18,376.453,1.6046,100.1525,27,5,2,7,9,148,1,1,1,2,95.94,True
F-1142,"5-ethyl-5-phenylimidazolidine-2,4-dione",CCC1(C2=CC=CC=C2)NC(=O)NC1=O,-2.64,204.228999999999,1.1313,55.0854,15,2,2,4,2,78,1,1,1,2,58.2,True
F-1148,"5-ethyl-5-pentan-2-yl-1,3-diazinane-2,4,6-trione",CCCC(C)C1(CC)C(=O)NC(=O)NC1=O,-2.39,226.276,1.18499999999999,58.4774,16,3,2,5,4,90,0,1,1,1,75.27,True
F-1149,"3-methyl-1-(2,3,4,5-tetrahydroxypentyl)-3,4-dihydro-1,4-benzodiazepine-2,5-dione",CC1NC(=O)C2=C(C=CC=C2)N(CC(O)C(O)C(O)CO)C1=O,-1.51,324.333,-1.7735,80.8294,23,6,5,8,5,126,1,0,1,2,130.33,True
F-1150,"1-(2,3,4,5-tetrahydroxypentyl)-3,4-dihydro-1,4-benzodiazepine-2,5-dione",O=C1NCC(=O)N(CC(O)C(O)C(O)CO)C2=C1C=CC=C2,-1.46,310.306,-2.16199999999999,76.2344,22,6,5,8,5,120,1,0,1,2,130.33,True
F-1159,"6a,7,8,9-tetrahydro-5H-pyrrolo[2,1-c][1,4]benzodiazepine-6,11-dione",O=C1NC2=C(C=CC=C2)C(=O)N2CCCC12,-3.75,216.239999999999,1.24329999999999,59.1302,16,2,1,4,0,82,1,1,2,3,49.41,True
F-1160,"2-chloro-6a,7,8,9-tetrahydro-5H-pyrrolo[2,1-c][1,4]benzodiazepine-6,11-dione",O=C1NC2=C(C=C(Cl)C=C2)C(=O)N2CCCC12,-4.7,250.684999999999,1.89669999999999,64.1402,17,2,1,5,0,88,1,1,2,3,49.41,True
F-1162,"8-hydroxy-6a,7,8,9-tetrahydro-5H-pyrrolo[2,1-c][1,4]benzodiazepine-6,11-dione",O=C1NC2=C(C=CC=C2)C(=O)N2CC(O)CC12,-2.37,232.238999999999,0.214099999999999,60.52,17,3,2,5,0,88,1,1,2,3,69.64,True
F-1164,2-acetamido-3-(1H-indol-3-yl)propanoic acid,CC(=O)NC(CC1=CNC2=C1C=CC=C2)C(=O)O,-2.31,246.266,1.29969999999999,67.2432,18,2,3,5,4,94,2,0,0,2,82.19,True
F-1172,2-[[2-amino-3-(1H-indol-3-yl)propanoyl]amino]acetic acid,NC(CC1=CNC2=C1C=CC=C2)C(=O)NCC(=O)O,-0.85,261.280999999999,0.238499999999999,70.6236,19,3,4,6,5,100,2,0,0,2,108.21,True
F-1182,1-[(2-carboxy-5-oxopyrrolidin-1-yl)methyl]-5-oxopyrrolidine-2-carboxylic acid,O=C(O)C1CCC(=O)N1CN1C(=O)CCC1C(=O)O,-1.31,270.240999999999,-0.904899999999999,59.8746,19,4,2,8,4,104,0,2,2,2,115.22,True
F-1183,"2-[4-[(4-methoxyphenyl)methyl]-2,5-dioxoimidazolidin-1-yl]propanoic acid",COC1=CC=C(CC2NC(=O)N(C(C)C(=O)O)C2=O)C=C1,-0.86,292.291,0.631199999999999,72.9615,21,4,2,7,5,112,1,1,1,2,95.94,True
F-1184,2-[(4-fluorophenyl)sulfonylamino]-~{N}-(2-hydroxyoxolan-3-yl)-3-methylbutanamide,CC(C)C(NS(=O)(=O)C1=CC=C(F)C=C1)C(=O)NC1CCOC1O,-2.38,360.407,0.352099999999999,83.854,24,5,3,9,6,134,1,1,1,2,104.73,True
F-1185,N-(2-hydroxyoxolan-3-yl)-4-methyl-2-(phenylcarbamothioylamino)pentanamide,CC(C)CC(NC(=S)NC1=CC=CC=C1)C(=O)NC1CCOC1O,-2.37,351.472,1.61119999999999,97.5479,24,4,4,7,6,132,1,1,1,2,82.62,True
F-1187,2-[(2-amino-4-methylpentanoyl)amino]-3-(1H-indol-3-yl)propanoic acid,CC(C)CC(N)C(=O)NC(CC1=CNC2=C1C=CC=C2)C(=O)O,-1.12,317.389,1.6532,88.9996,23,3,4,6,7,124,2,0,0,2,108.21,True
F-1195,"14-hydroxy-8,16-diazahexacyclo[11.5.2.1^{1,8}.0^{2,7}.0^{16,19}.0^{12,21}]henicosa-2,4,6,10-tetraene-9,15-dione",O=C1C(O)C2CC3N1CCC31C3=C(C=CC=C3)N3C(=O)C=CC2C31,-2.11,322.364,0.8209,86.2558,24,3,1,5,0,122,1,3,5,6,60.85,True
F-1199,"3,3-dimethyl-7-oxo-6-[[2-(phenoxy)acetyl]amino]-4-thia-1-azabicyclo[3.2.0]heptane-2-carboxylic acid",CC1(C)SC2C(NC(=O)COC3=CC=CC=C3)C(=O)N2C1C(=O)O,-2.81,350.396,0.697099999999999,87.5955,24,5,2,8,5,128,1,2,2,3,95.94,True
F-1201,6-hydroxy-5-(phenylmethyl)-2-propan-2-ylmorpholin-3-one,CC(C)C1OC(O)C(CC2=CC=CC=C2)NC1=O,-2.28,249.31,1.08709999999999,67.7945,18,3,2,4,3,98,1,1,1,2,58.56,True
F-1202,6-hydroxy-2-(2-methylpropyl)-5-(phenylmethyl)morpholin-3-one,CC(C)CC1OC(O)C(CC2=CC=CC=C2)NC1=O,-2.12,263.337,1.47719999999999,72.4115,19,3,2,4,4,104,1,1,1,2,58.56,True
F-1204,"benzene-1,4-dicarbohydrazide",NNC(=O)C1=CC=C(C(=O)NN)C=C1,-2.29,194.194,-1.10639999999999,49.7492,14,4,4,6,2,74,1,0,0,1,110.24,True
F-1205,2-amino-2-phenyl-N-(1-phenylethyl)acetamide,CC(NC(=O)C(N)C1=CC=CC=C1)C1=CC=CC=C1,-1.66,254.333,2.5638,76.3701,19,2,2,3,4,98,2,0,0,2,55.12,True
G-281,3-Heptanoyloxymethylphenytoin,O=C1N(COC(=O)CCCCCC)C(=O)C(N1)(c2ccccc2)c3ccccc3,-6.301,394.471,3.9531,108.7597,29,4,1,6,9,152,2,1,1,3,75.71,True
G-284,3-Hexanoyloxymethylphenyltoin,O=C1N(COC(=O)CCCCC)C(=O)C(N1)(c2ccccc2)c3ccccc3,-5.886,380.444,3.563,104.1427,28,4,1,6,8,146,2,1,1,3,75.71,True
G-339,5-Ethyl-5-isopropylbarbituric acid,O=C1NC(=O)NC(=O)C1(CC)C(C)C,-2.148,198.221999999999,0.404799999999999,49.2434,14,3,2,5,2,78,0,1,1,1,75.27,True
G-367,acetyl sulfisoxazole,CC(=O)N(S(=O)c1ccc(N)cc1)c2onc(C)c2C ,-3.59,293.348,1.94934,76.3998,20,5,1,7,3,106,2,0,0,2,89.43,True
G-401,Apazone,CCCC1C(=O)N3N(C1=O)c2cc(C)ccc2N=C3N(C)C ,-3.538,300.362,2.06421999999999,84.691,22,4,0,6,2,116,1,1,2,3,56.22,True
G-407,Azodrin,CNC(=O)C=C(C)OP(=O)(OC)OC,0.650999999999999,223.164999999999,1.05369999999999,50.5332,14,5,1,7,5,82,0,0,0,0,73.86,True
G-546,Cyclopentyl-5-spirobarbituric acid,O=C2NC(=O)C1(CCCC1)C(=O)N2,-2.349,182.179,-0.0872000000000001,42.5824,13,3,2,5,0,70,0,2,2,2,75.27,True
G-600,Dimecron,CCN(CC)C(=O)C(=CCOP(=O)(OC)OC)Cl,0.523,299.690999999999,2.395,69.4405,18,5,0,8,8,106,0,0,0,0,65.07,True
G-864,nevirapine,Cc3ccnc4N(C1CC1)c2ncccc2C(=O)Nc34 ,-3.19,266.304,2.65122,76.3252,20,4,1,5,1,100,2,1,2,4,58.12,True
G-877,nitrofurantoin,O=C2CN(N=Cc1ccc(o1)N(=O)=O)C(=O)N2 ,-3.38,238.158999999999,0.0734999999999999,53.2011,17,6,1,9,3,88,1,1,1,2,118.049999999999,True
G-882,norbormide,OC(C1=CC2C5C(C1C2=C(c3ccccc3)c4ccccn4)C(=O)NC5=O)(c6ccccc6)c7ccccn7 ,-3.931,511.581,4.2894,145.571499999999,39,5,2,6,5,190,4,2,3,7,92.18,True
G-906,Oxamyl,CNC(=O)ON=C(SC)C(=O)N(C)C,0.106,219.266,0.107099999999999,55.1847,14,5,1,7,1,80,0,0,0,0,70.9999999999999,True
G-907,Oxazepam,OC3N=C(c1ccccc1)c2cc(Cl)ccc2NC3=O ,-3.952,286.718,2.44789999999999,78.1695,20,3,2,5,1,100,2,0,1,3,61.69,True
G-959,phthalamide,c1cC2C(=O)NC(=O)C2cc1,-2.932,149.149,0.00119999999999992,38.4097,11,2,1,3,0,56,0,1,2,2,46.17,True
G-1011,Pyrazinamide,NC(=O)c1cnccn1,-0.667,123.114999999999,-0.4245,30.5498999999999,9,3,1,4,1,46,1,0,0,1,68.87,True
G-1020,Quinonamid,ClC(Cl)CC(=O)NC2=C(Cl)C(=O)c1ccccc1C2=O,-5.03,332.57,2.826,76.2357,20,3,1,7,3,104,1,0,1,2,63.24,True
G-1023,Reposal,CCC1(C(=O)NC(=O)NC1=O)C2=CCC3CCC2C3,-2.696,262.308999999999,1.49519999999999,67.9364,19,3,2,5,2,102,0,2,3,3,75.27,True
G-1024,Reverse Transcriptase inhibitor 1,CCN2c1ncccc1N(C)C(=O)c3cccnc23 ,-2.62,254.292999999999,2.22459999999999,73.8875,19,4,0,5,1,96,2,0,1,3,49.33,True
G-1031,RTI 10,O2c1ccccc1N(C)C(=O)c3cccnc23 ,-3.67199999999999,226.235,2.4639,63.4865,17,3,0,4,0,84,2,0,1,3,42.43,True
G-1032,RTI 11,O2c1ccc(N)cc1N(C)C(=O)c3cc(C)ccc23 ,-3.928,254.289,2.95952,74.8409,19,3,1,4,0,96,2,0,1,3,55.56,True
G-1033,RTI 12,CCN2c1nc(Cl)ccc1N(C)C(=O)c3cccnc23 ,-4.114,288.738,2.878,78.8975,20,4,0,6,1,102,2,0,1,3,49.33,True
G-1034,RTI 13,CCN2c1nc(C)cc(C(F)(F)F)c1NC(=O)c3cccnc23 ,-4.207,322.29,3.52752,78.8462,23,4,1,8,1,120,2,0,1,3,58.12,True
G-1035,RTI 15,CCN2c1nc(C)cc(C)c1NC(=O)c3cccnc23 ,-4.55399999999999,268.32,2.81714,78.5812,20,4,1,5,1,102,2,0,1,3,58.12,True
G-1038,RTI 19,CCN2c1ccccc1N(C)C(=O)c3ccccc23 ,-4.749,252.316999999999,3.4346,78.2975,19,2,0,3,1,96,2,0,1,3,23.55,True
G-1039,RTI 2,CCN2c1ncccc1N(CC)C(=O)c3cccnc23 ,-2.86,268.32,2.6147,78.5045,20,4,0,5,2,102,2,0,1,3,49.33,True
G-1041,RTI 22,CCN2c1cc(N(C)C)cc(C)c1NC(=O)c3cccnc23 ,-4.871,296.374,3.17972,90.3762,22,4,1,5,2,114,2,0,1,3,48.47,True
G-1042,RTI 23,CCN2c1cc(OC)cc(C)c1NC(=O)c3cccnc23 ,-5.153,283.331,3.12232,82.6012,21,4,1,5,2,108,2,0,1,3,54.46,True
G-1043,RTI 24,CCN2c1cc(Cl)ccc1NC(=O)c3cccnc23 ,-5.36,273.723,3.4587,76.3222,19,3,1,5,1,96,2,0,1,3,45.23,True
G-1044,RTI 3,O2c1cc(C)ccc1N(C)C(=O)c3cc(N)cnc23 ,-3.043,255.277,2.35452,72.6359,19,4,1,5,0,96,2,0,1,3,68.45,True
G-1045,RTI 5,CCN2c1ccccc1N(C)C(=O)c3cccnc23 ,-3.324,253.304999999999,2.8296,76.0925,19,3,0,4,1,96,2,0,1,3,36.44,True
G-1046,RTI 6,CCN2c1nc(N(C)(CCO))ccc1NC(=O)c3cccnc23 ,-3.36,313.361,1.62879999999999,89.463,23,6,2,7,4,120,2,0,1,3,81.59,True
G-1047,RTI 7,C2c1ccccc1N(CCF)C(=O)c3ccccc23 ,-3.535,255.291999999999,3.2071,73.3415,19,1,0,3,2,96,2,0,1,3,20.31,True
G-1048,RTI 9,O2c1ccccc1N(CC)C(=O)c3ccccc23 ,-3.68,239.274,3.459,70.3085,18,2,0,3,1,90,2,0,1,3,29.54,True
G-1058,"Sparsomycin (3,8mg/ml)",CSCS(=O)CC(CO)NC(=O)C=Cc1c(C)[nH]c(=O)[nH]c1=O,-1.98099999999999,361.445,-1.06887999999999,91.8623,23,6,4,10,8,128,1,0,0,1,132.119999999999,True
G-1141,Vinclozolin,CC1(OC(=O)N(C1=O)c2cc(Cl)cc(Cl)c2)C=C,-4.925,286.114,3.4213,69.031,18,3,0,6,2,94,1,1,1,2,46.61,True
H-399,Phenacetin  ,CCOC1=CC=C(NC(C)=O)C=C1,-2.3,179.219,2.0437,51.9147,13,2,1,3,3,70,1,0,0,1,38.33,True
H-419,Propyzamide  ,CCC(N)=O,-4.23,73.0949999999999,-0.118299999999999,19.4854,5,1,1,2,1,30,0,0,0,0,43.09,True
H-524,Alachlor,CCC1=CC=CC(CC)=C1N(COC)C(=O)CCl,-3.17,269.771999999999,2.9871,75.28,18,2,0,4,6,100,1,0,0,1,29.54,True
H-545,dialifos,CCOP(=S)(OCC)SC(CCl)N1C(=O)C2=CC=CC=C2C1=O,-5.85,393.854,3.8782,96.578,23,6,0,9,8,126,1,0,1,2,55.84,True
I-6,acetazolamide,S(=O)(=O)(N)c1sc(NC(=O)C)nn1,-2.44,222.251,-0.8561,45.5858999999999,13,6,2,9,2,72,1,0,0,1,115.039999999999,True
I-18,cephalothin,C1(=C(COC(C)=O)CS[C@@H]2[C@H](NC(=O)Cc3cccs3)C(N12)=O)C(O)=O,-2.94,396.446,0.592299999999999,94.3405,26,7,2,10,6,138,1,1,2,3,113.01,True
I-33,diltiazem,O=C1[C@H](OC(C)=O)[C@H](c2ccc(OC)cc2)Sc2ccccc2N1CCN(C)C,-3.16,414.527,3.3685,114.495,29,6,0,7,6,154,2,0,1,3,59.08,True
I-42,glipizide,O=C(NC1CCCCC1)NS(=O)(c1ccc(CCNC(c2cnc(cn2)C)=O)cc1)=O,-5.49,445.545,2.07811999999999,114.9744,31,6,3,10,7,166,2,1,1,3,130.15,True
I-62,oxytetracycline,OC1=C(C(O)=C(C([C@@](C(C(C(N)=O)=C(O)[C@H]2N(C)C)=O)(O)[C@@]2([H])[C@H]3O)=O)[C@@]3([H])[C@@]4(O)C)C4=CC=C1,-3.09,460.439,-1.40019999999999,111.5012,33,10,7,11,2,176,1,1,3,4,201.849999999999,True
I-66,phenobarbital,C1(NC(C(c2ccccc2)(C(=O)N1)CC)=O)=O,-2.29,232.238999999999,0.700399999999999,60.0924,17,3,2,5,2,88,1,1,1,2,75.27,True
I-85,tetracycline,OC1=C(C(C2=C(O)[C@@](C(C(C(N)=O)=C(O)[C@H]3N(C)C)=O)(O)[C@@]3([H])C[C@]2([H])[C@@]4(O)C)=O)C4=CC=C1,-2.93,444.44,-0.214399999999999,109.5409,32,9,6,10,2,170,1,0,3,4,181.619999999999,True