ID,Name,SMILES,LogS,MolWt,MolLogP,MolMR,HeavyAtomCount,NumHAcceptors,NumHDonors,NumHeteroatoms,NumRotatableBonds,NumValenceElectrons,NumAromaticRings,NumSaturatedRings,NumAliphaticRings,RingCount,TPSA,IsAmide
C-1413,"naproxen (n,n-dimethylcarbamoyl)methyl ester",COC1=CC=C2C=C(C=CC2=C1)C(C)C(=O)OCC(=O)N(C)C,-4.9,315.369,2.5833,88.568,23,4,0,5,5,122,2,0,0,2,55.84,True
C-1431,"naproxen (n,n-diethylcarbamoyl)methyl ester",CCN(CC)C(=O)COC(=O)C(C)C1=CC2=CC=C(OC)C=C2C=C1,-4.46,343.423,3.3635,97.802,25,4,0,5,7,134,2,0,0,2,55.84,True
C-1432,naproxen ester ve;  naproxen [n-(2-hydroxyethyl)-n-methyl-carbamoyl]methyl ester,COC1=CC=C2C=C(C=CC2=C1)C(C)C(=O)OCC(=O)N(C)CCO,-3.39,345.395,1.94579999999999,94.5968,25,5,1,6,7,134,2,0,0,2,76.07,True
C-1458,temazepam;  3-hydroxydiazepam,CN1C(=O)C(O)N=C(C2=CC=CC=C2)C3=C1C=CC(=C3)Cl,-2.7,300.745,2.4722,82.9498,21,3,1,5,1,106,2,0,1,3,52.9,True
C-1467,"naproxen [n,n-bis(2-hydroxyethyl)carbamoyl]methyl ester",COC1=CC=C2C=C(C=CC2=C1)C(C)C(=O)OCC(=O)N(CCO)CCO,-2.96,375.421,1.3083,100.6256,27,6,2,7,9,146,2,0,0,2,96.3,True
C-1469,prazepam,ClC1=CC2=C(C=C1)N(CC3CC3)C(=O)CN=C2C4=CC=CC=C4,-4.91,324.811,3.934,93.477,23,2,0,4,3,116,2,1,2,4,32.67,True
C-1471,"n,n-diethylcarbamoylmethyl nalidixate;  nalidixic acid (n,n-diethylcarbamoyl)methyl ester",CCN(CC)C(=O)COC(=O)C1=CN(CC)C2=C(C=CC(=N2)C)C1=O,-1.43,345.399,1.75001999999999,94.6245,25,6,0,7,6,134,2,0,0,2,81.5,True
C-1476,naproxen ester vd; naproxen [n-(carbamoylmethyl)-n-(methyl)carbamoyl]methyl ester,COC1=CC=C2C=C(C=CC2=C1)C(C)C(=O)OCC(=O)N(C)CC(N)=O,-3.78,358.394,1.43879999999999,96.7054,26,5,1,7,7,138,2,0,0,2,98.93,True
C-1479,"entacapone analog (2 b); (e)-2-cyano-n,n-diethyl-3-(3-butylaminocarbonyloxy-4-hydroxy-5-nitrophenyl)propenamide",CCCCNC(=O)OC1=C(O)C(=CC(=C1)\C=C(C#N)/C(=O)N(CC)CC)[N+]([O-])=O,-2.32,404.423,2.96428,105.2139,29,7,2,10,9,156,1,0,0,1,145.799999999999,True
C-1484,"entacapone analog (2 c); (e)-2-cyano-n,n-diethyl-3-(3-tert-butylaminocarbonyloxy-4-hydroxy-5-nitrophenyl)propenamide",CCN(CC)C(=O)\C(=C/C1=CC(=C(O)C(=C1)[N+]([O-])=O)OC(=O)NC(C)(C)C)C#N,-3.53,404.423,2.96268,105.1919,29,7,2,10,6,156,1,0,0,1,145.8,True
C-1512,hexaflumuron;  consult,FC(F)C(F)(F)OC1=C(Cl)C=C(NC(=O)NC(=O)C2=C(F)C=CC=C2F)C=C1Cl,-5.82,461.145,5.4702,90.8839,29,3,2,13,5,156,2,0,0,2,67.43,True
C-1524,paclitaxel;  taxol a,CC(=O)OC1C(=O)C2(C)C(O)CC3OCC3(OC(C)=O)C2C(OC(=O)C4=CC=CC=C4)C5(O)CC(OC(=O)C(O)C(NC(=O)C6=CC=CC=C6)C7=CC=CC=C7)C(=C1C5(C)C)C,-6.33,853.918,3.7357,217.690099999999,62,14,4,15,10,328,3,3,4,7,221.29,True
C-1561,"2-bromo-2,2-diethylacetamide",CCC(Br)(CC)C(N)=O,-1.44,194.071999999999,1.42539999999999,41.4344,9,1,1,3,3,54,0,0,0,0,43.09,True
C-1572,glycylglycine,NCC(=O)NCC(O)=O,0.1,132.118999999999,-1.85409999999999,29.6998999999999,9,3,3,5,3,52,0,0,0,0,92.42,True
C-1593,succinimide,O=C1CCC(=O)N1,0.39,99.089,-0.577,22.3836999999999,7,2,1,3,0,38,0,1,1,1,46.17,True
C-1601,cycloserine;  4-aminoisoxazolidine-3-one,NC1CONC1=O,-0.01,102.092999999999,-1.6249,22.0701,7,3,2,4,0,40,0,1,1,1,64.35,True
C-1627,methyl  2-allyl-2-ethylmalonurate,CCC(CC=C)(C(=O)NC(N)=O)C(=O)OC,-1.92,228.247999999999,0.3268,57.2801,16,4,2,6,5,90,0,0,0,0,98.49,True
C-1646,"5,5-spirocycloheptylbarbituric  acid;  spiro-5,5-hexamethylenebarbituric acid",O=C1NC(=O)C2(CCCCCC2)C(=O)N1,-2.98,210.232999999999,0.692999999999999,51.8164,15,3,2,5,0,82,0,2,2,2,75.27,True
C-1648,propionanilide,CCC(=O)NC1=CC=CC=C1,-1.55,149.192999999999,2.0351,45.3627,11,1,1,2,2,58,1,0,0,1,29.1,True
C-1650,5-ethyl-5-propyl-2-thiobarbituric acid,CCCC1(CC)C(=O)NC(=S)NC1=O,-2.8,214.29,0.7138,56.5154,14,3,2,5,3,78,0,1,1,1,58.2,True
C-1655,5-allyl-5-butylbarbituric  acid,CCCCC1(CC=C)C(=O)NC(=O)NC1=O,-2.17,224.26,1.10509999999999,58.4534,16,3,2,5,5,88,0,1,1,1,75.27,True
C-1660,4-amino-n-methyl-benzamide,CNC(=O)C1=CC=C(N)C=C1,-1.24,150.181,0.6284,44.2446,11,2,2,3,1,58,1,0,0,1,55.12,True
C-1662,5-butyl-5-ethyl-2-thiobarbituric acid,CCCCC1(CC)C(=O)NC(=S)NC1=O,-3.14,228.317,1.10389999999999,61.1324,15,3,2,5,4,84,0,1,1,1,58.2,True
C-1666,5-methylbarbituric acid,CC1C(=O)NC(=O)NC1=O,-1.13,142.113999999999,-1.0115,30.8453999999999,10,3,2,5,0,54,0,1,1,1,75.27,True
C-1667,"3,6-dimethylpiperazine-2,5-dione",CC1NC(=O)C(C)NC1=O,-0.75,142.158,-0.990599999999999,35.2093999999999,10,2,2,4,0,56,0,1,1,1,58.2,True
C-1676,"methyl  2,6-dimethyl-2-(1-cyclohexen-1-yl)malonurate",CNC(=O)NC(=O)C(C)(C(=O)OC)C1=CCCCC1,-2.68,268.312999999999,1.12169999999999,69.2724,19,4,2,6,3,106,0,0,1,1,84.5,True
C-1677,5-ethyl-5-pentyl-2-thiobarbituric  acid,CCCCCC1(CC)C(=O)NC(=S)NC1=O,-3.71,242.344,1.494,65.7494,16,3,2,5,5,90,0,1,1,1,58.2,True
C-1685,vamidothion,CNC(=O)C(C)SCCS[P](=O)(OC)OC,0.54,287.342999999999,1.98819999999999,70.0692,16,6,1,8,8,96,0,0,0,0,64.63,True
C-1689,5-ethyl-5-hexyl-2-thiobarbituric  acid,CCCCCCC1(CC)C(=O)NC(=S)NC1=O,-4.08,256.371,1.88409999999999,70.3664,17,3,2,5,6,96,0,1,1,1,58.2,True
C-1690,"5,5-spirononamethylenebarbituric acid",O=C1NC(=O)C2(CCCCCCCCC2)C(=O)N1,-4.59,252.313999999999,1.8633,65.6674,18,3,2,5,0,100,0,2,2,2,75.27,True
C-1693,"3-isobutylpiperazine-2,5-dione",CC(C)CC1NC(=O)CNC1=O,-1.25,170.212,-0.3529,44.3954,12,2,2,4,2,68,0,1,1,1,58.2,True
C-1701,"methoxymethyl  2-cyhexen-1-yl-2,6-dimethylmalonurate",CNC(=O)NC(=O)C(C)(C(=O)OCOC)C1=CCCCC1,-2.42,298.339,1.09579999999999,75.2244,21,5,2,7,5,118,0,0,1,1,93.73,True
C-1703,n-hydroxymethyl-4-methoxybenzamide,COC1=CC=C(C=C1)C(=O)NCO,-1.22,181.190999999999,0.374799999999999,47.546,13,3,2,4,3,70,1,0,0,1,58.56,True
C-1706,n-hydroxymethyl-3-methoxybenzamide,COC1=CC=CC(=C1)C(=O)NCO,-1.29,181.190999999999,0.374799999999999,47.546,13,3,2,4,3,70,1,0,0,1,58.56,True
C-1730,n-piperidin-1-ylmethylbenzamide,O=C(NCN1CCCCC1)C2=CC=CC=C2,-2.15,218.3,1.8598,64.1992,16,2,1,3,3,86,1,1,1,2,32.34,True
C-1734,4-acetoxybenzamide;  4-carbamoylphenyl  acetate,CC(=O)OC1=CC=C(C=C1)C(N)=O,-1.64,179.174999999999,0.7108,46.2689,13,3,1,4,2,68,1,0,0,1,69.39,True
C-1752,1-acetylamino-3-isothiocyanatobenzene,CC(=O)NC1=CC=CC(=C1)N=C=S,-3.53,192.243,2.3793,55.4317,13,3,1,4,2,66,1,0,0,1,41.46,True
C-1756,4-(methoxycarbonyl)acetanilide;  4-acetylaminobenzoic acid methyl ester,COC(=O)C1=CC=C(NC(C)=O)C=C1,-1.9,193.202,1.43159999999999,52.0852,14,3,1,4,2,74,1,0,0,1,55.4,True
C-1775,n-butanoyl-n'-isonicotinoylhydrazine,CCCC(=O)NNC(=O)C1=CC=NC=C1,-0.32,207.233,0.642699999999999,54.7539,15,3,2,5,3,80,1,0,0,1,71.09,True
C-1810,n-isonicotinoyl-n'-pentanoylhydrazine,CCCCC(=O)NNC(=O)C1=CC=NC=C1,-1.01,221.26,1.03279999999999,59.3709,16,3,2,5,4,86,1,0,0,1,71.09,True
C-1816,4-acetamidophenyl  propionate; acetaminophen propionate; 4-propanoyloxyacetanilide,CCC(=O)OC1=CC=C(NC(C)=O)C=C1,-2.72,207.228999999999,1.96039999999999,56.6717,15,3,1,4,3,80,1,0,0,1,55.4,True
C-1818,n-(5-chloro-4-methylthiazol-2-yl)propionamide,CCC(=O)NC1=NC(=C(Cl)S1)C,-3.06,204.682,2.45342,50.7817,12,3,1,5,2,66,1,0,0,1,41.99,True
C-1830,pyracarbolid;  sicarol,CC1=C(CCCO1)C(=O)NC2=CC=CC=C2,-2.56,217.268,2.7095,62.9577,16,2,1,3,2,84,1,0,1,2,38.33,True
C-1831,4-(methoxycarbonyloxy)acetanilide,COC(=O)OC1=CC=C(NC(C)=O)C=C1,-1.69,209.201,1.79019999999999,53.7787,15,4,1,5,2,80,1,0,0,1,64.63,True
C-1833,propyl  4-acetylaminobenzoate;  4-acetylaminobenzoic acid propyl ester,CCCOC(=O)C1=CC=C(NC(C)=O)C=C1,-3.29,221.255999999999,2.2118,61.3192,16,3,1,4,4,86,1,0,0,1,55.4,True
C-1839,n1-isonicotinoyl-n2-hexanoylhydrazine,CCCCCC(=O)NNC(=O)C1=CC=NC=C1,-1.24,235.287,1.4229,63.9879,17,3,2,5,5,92,1,0,0,1,71.09,True
C-1850,3-deazauridine,OCC1OC(C(O)C1O)N2C=CC(=O)CC2=O,-0.77,243.214999999999,-2.25949999999999,53.3704,17,6,3,7,2,94,0,1,2,2,107.299999999999,True
C-1851,acetaminophen  butyrate,CCCC(=O)OC1=CC=C(NC(C)=O)C=C1,-2.83,221.255999999999,2.3505,61.2887,16,3,1,4,4,86,1,0,0,1,55.4,True
C-1857,4-[(ethoxycarbonyloxy)methoxy]acetanilide,CCOC(=O)OCOC1=CC=C(NC(C)=O)C=C1,-2.43,253.254,2.1544,64.3477,18,5,1,6,5,98,1,0,0,1,73.86,True
C-1863,n-isonicotinoyl-n'-heptanoylhydrazine,CCCCCCC(=O)NNC(=O)C1=CC=NC=C1,-2.1,249.314,1.813,68.6049,18,3,2,5,6,98,1,0,0,1,71.09,True
C-1867,butyl  4-acetylaminobenzoate;  4-acetylaminobenzoic acid butyl ester,CCCCOC(=O)C1=CC=C(NC(C)=O)C=C1,-3.46,235.283,2.6019,65.9362,17,3,1,4,5,92,1,0,0,1,55.4,True
C-1886,n-isonicotinoyl-n'-octanoylhydrazine,CCCCCCCC(=O)NNC(=O)C1=CC=NC=C1,-2.91,263.341,2.2031,73.2219,19,3,2,5,7,104,1,0,0,1,71.09,True
C-1894,4-(propoxycarbonyloxy)acetanilide,CCCOC(=O)OC1=CC=C(NC(C)=O)C=C1,-2.57,237.255,2.5704,63.0127,17,4,1,5,4,92,1,0,0,1,64.63,True
C-1901,acetaminophen hexanoate,CCCCCC(=O)OC1=CC=C(NC(C)=O)C=C1,-4.14,249.31,3.1307,70.5227,18,3,1,4,6,98,1,0,0,1,55.4,True
C-1902,n-isonicotinoyl-n'-nonanoylhydrazine,CCCCCCCCC(=O)NNC(=O)C1=CC=NC=C1,-3.52,277.368,2.5932,77.8389,20,3,2,5,8,110,1,0,0,1,71.09,True
C-1908,mepivacaine,CN1CCCCC1C(=O)NC2=C(C)C=CC=C2C,-1.99,246.353999999999,2.72624,74.8147,18,2,1,3,2,98,1,1,1,2,32.34,True
C-1909,2-benzoyloxy-(n-cyclohexyl)acetamide;  n-cyclohexyl-2-benzoyloxyacetamide,O=C(COC(=O)C1=CC=CC=C1)NC2CCCCC2,-3.9,261.320999999999,2.2923,71.7402,19,3,1,4,4,102,1,1,1,2,55.4,True
C-1922,4-(butoxycarboxy)acetanilide,CCCCOC(=O)OC1=CC=C(NC(C)=O)C=C1,-3.37,251.282,2.9605,67.6297,18,4,1,5,5,98,1,0,0,1,64.63,True
C-1925,"2-benzoyloxy-n,n-(diethyl)propionamide;  2-benzoyloxy-n,n-(diethyl)propanoic acid amide",CCN(CC)C(=O)C(C)OC(=O)C1=CC=CC=C1,-2.28,249.309999999999,2.1003,69.2475,18,3,0,4,5,98,1,0,0,1,46.61,True
C-1926,1-(hydroxymethyl)glutethimide,CCC1(CCC(=O)N(CO)C1=O)C2=CC=CC=C2,-1.66,247.294,1.4332,66.5838,18,3,1,4,3,96,1,1,1,2,57.61,True
C-1929,n-isonicotinoyl-n'-decanoylhydrazine;  n-decanoyl-n'-isonicotinoylhydrazine,CCCCCCCCCC(=O)NNC(=O)C1=CC=NC=C1,-4.17,291.395,2.9833,82.4559,21,3,2,5,9,116,1,0,0,1,71.09,True
C-1931,4-[(2-methoxy)ethoxycarbonyloxy]acetanilide,COCCOC(=O)OC1=CC=C(NC(C)=O)C=C1,-1.69,253.254,1.8068,64.5977,18,5,1,6,5,98,1,0,0,1,73.86,True
C-1939,"2-oxo-5-indolinyl acetate;  acetic acid 2-oxo-2,3-dihydro-1h-indol-5-yl ester;  5-acetoxy-2-oxo-2,3-dihydroindole",CC(=O)OC1=CC2=C(NC(=O)C2)C=C1,-1.54,191.185999999999,1.1065,50.0847,14,3,1,4,1,72,1,0,1,2,55.4,True
C-1944,amiloride,NC(=N)NC(=O)C1=NC(=C(N)N=C1N)Cl,-2.87,229.631,-1.08233,55.2470999999999,15,6,5,9,1,80,1,0,0,1,156.79,True
C-1948,2'-diethylaminoethyl  4-acetamidobenzoate,CCN(CC)CCOC(=O)C1=CC=C(NC(C)=O)C=C1,-1.65,278.352,2.1436,78.8162,20,4,1,5,7,110,1,0,0,1,58.64,True
C-1951,"benzyl  2,2-diethylmalonurate",CCC(CC)(C(=O)NC(N)=O)C(=O)OCC1=CC=CC=C1,-3.66,292.334999999999,1.73109999999999,76.9791,21,4,2,6,6,114,1,0,0,1,98.49,True
C-1952,acetaminophen  octanoate;  4-(octanoyloxy)acetanilide,CCCCCCCC(=O)OC1=CC=C(NC(C)=O)C=C1,-4.44,277.364,3.9109,79.7567,20,3,1,4,8,110,1,0,0,1,55.4,True
C-1953,n-cyclohexyl-n-methyl-2-(benzoyloxy)acetamide,CN(C1CCCCC1)C(=O)COC(=O)C2=CC=CC=C2,-3.29,275.348,2.6345,76.3675,20,3,0,4,4,108,1,1,1,2,46.61,True
C-1956,n-[2-(benzoyloxy)acetyl]-2-ethylpiperidine,CCC1CCCCN1C(=O)COC(=O)C2=CC=CC=C2,-2.72,275.348,2.6345,76.3675,20,3,0,4,4,108,1,1,1,2,46.61,True
C-1960,methyl  2-ethyl-2-phenylmalonurate,CCC(C(=O)NC(N)=O)(C(=O)OC)C1=CC=CC=C1,-2.75,264.281,0.7023,68.1531,19,4,2,6,4,102,1,0,0,1,98.49,True
C-1962,4-[(1-methyl-2-methoxy)ethoxy]carboxyacetanilide; 4-[(2-methoxy-1-methylethyloxy)carbonyloxy]acetanilide,COCC(C)OC(=O)OC1=CC=C(NC(C)=O)C=C1,-2.48,267.281,2.19529999999999,69.1927,19,5,1,6,5,104,1,0,0,1,73.86,True
C-1963,4-hexyloxycarbonyloxyacetanilide,CCCCCCOC(=O)OC1=CC=C(NC(C)=O)C=C1,-4.32,279.336,3.7407,76.8637,20,4,1,5,7,110,1,0,0,1,64.63,True
C-1967,"n,n-diisobutyl-2-benzoyloxyacetamide",CC(C)CN(CC(C)C)C(=O)COC(=O)C1=CC=CC=C1,-3.56,291.390999999999,2.984,82.9805,21,3,0,4,7,116,1,0,0,1,46.61,True
C-1976,"2-benzoyloxy-n,n-bis(2-hydroxypropyl)acetamide; n,n-bis(2-hydroxypropyl)-2-benzoyloxyacetamide",CC(O)CN(CC(C)O)C(=O)COC(=O)C1=CC=CC=C1,-1.18,295.335,0.433599999999999,76.6661,21,5,2,6,7,116,1,0,0,1,87.07,True
C-1978,acetaminophen  decanoate,CCCCCCCCCC(=O)OC1=CC=C(NC(C)=O)C=C1,-4.53,305.418,4.6911,88.9907,22,3,1,4,10,122,1,0,0,1,55.4,True
C-1979,thiophenobarbital;  5-ethyl-5-phenyl-2-thiobarbituric  acid,CCC1(C(=O)NC(=S)NC1=O)C2=CC=CC=C2,-3.58,248.307,0.865299999999999,67.2944,17,3,2,5,2,88,1,1,1,2,58.2,True
C-1998,epristeride; skf-105657,CC(C)(C)NC(=O)C1CCC2C3CC=C4C=C(CCC4(C)C3CCC12C)C(O)=O,-8.76,399.575,5.101,114.1905,29,2,2,4,2,160,0,2,4,4,66.4,True
C-1999,amdinocillin; mecillinam,CC1(C)SC2C(N=CN3CCCCCC3)C(=O)N2C1C(O)=O,-4.5,325.433999999999,1.4062,86.0488,22,4,1,7,3,122,0,3,3,3,73.21,True
C-2005,1-(hydroxymethyl)phenobarbital,CCC1(C(=O)NC(=O)N(CO)C1=O)C2=CC=CC=C2,-1.6,262.265,0.362599999999999,65.8815,19,4,2,6,3,100,1,1,1,2,86.71,True
C-2018,"n,o-diacetyl-l-tyrosinamide",CC(=O)NC(CC1=CC=C(OC(C)=O)C=C1)C(N)=O,-1.9,264.280999999999,0.144399999999999,68.2541,19,4,2,6,5,102,1,0,0,1,98.49,True
C-2028,cyclacillin;  wy-4508;   6-(1-aminocyclohexanecarboxamido)penicillanic acid,CC1(C)SC2C(NC(=O)C3(N)CCCCC3)C(=O)N2C1C(O)=O,-1.04,341.433,0.279700000000001,85.6619,23,5,3,8,3,128,0,3,3,3,112.729999999999,True
C-2045,"myclozolin; 3-(3,5-dichlorophenyl)-5-methoxymethyl-5-methyl-oxazolidine-2,4-dione",COCC1(C)OC(=O)N(C1=O)C2=CC(=CC(=C2)Cl)Cl,-4.66,304.129,2.8817,70.71,19,4,0,7,3,102,1,1,1,2,55.84,True
C-2046,"rufinamide;  1-(2,6-difluorobenzyl)-1h-1,2,3-triazole-4-carboxamide",NC(=O)C1=C[N](CC2=C(F)C=CC=C2F)N=N1,-3.5,238.197,0.7035,53.9999,17,4,1,7,3,88,2,0,0,2,73.8,True
C-2049,n-(2-benzoyloxyacetyl)proline methyl ester,COC(=O)C1CCCN1C(=O)COC(=O)C2=CC=CC=C2,-2.08,291.303,1.00739999999999,73.4755,21,5,0,6,4,112,1,1,1,2,72.91,True
C-2053,n-isonicotinoyl-n'-benzoylhydrazine;  n-benzoyl-n'-isonicotinoylhydrazine,O=C(NNC(=O)C1=CC=NC=C1)C2=CC=CC=C2,-2.54,241.25,1.15639999999999,65.6114,18,3,2,5,2,90,2,0,0,2,71.09,True
C-2056,"n1,n4-diacetylsulfanilamide;  n4-acetylsulfacetamide",CC(=O)NC1=CC=C(C=C1)[S](=O)(=O)NC(C)=O,-2.78,256.283,0.469799999999999,61.7482,17,4,2,7,3,92,1,0,0,1,92.34,True
C-2060,"n,n-(dicyclohexyl)acetamido  benzoate;  analog 29",O=C(COC(=O)C1=CC=CC=C1)N(C2CCCCC2)C3CCCCC3,-5.06,343.467,4.3374,97.3165,25,3,0,4,5,136,1,2,2,3,46.61,True
C-2073,n-isonicotinoyl-n'-(phenylacetyl)hydrazine,O=C(CC1=CC=CC=C1)NNC(=O)C2=CC=NC=C2,-2.47,255.277,1.0853,69.9919,19,3,2,5,3,96,2,0,0,2,71.09,True
C-2075,"2,4-dimethylthiazole-5-carboxanilide",CC1=NC(=C(S1)C(=O)NC2=CC=CC=C2)C,-1.73,232.308,3.01224,65.9832,16,3,1,4,2,82,2,0,0,2,41.99,True
C-2088,n-isonicotinoyl-n'-(2-methylbenzoyl)hydrazine,CC1=C(C=CC=C1)C(=O)NNC(=O)C2=CC=NC=C2,-2.73,255.277,1.46482,70.3484,19,3,2,5,2,96,2,0,0,2,71.09,True
C-2104,"9-[2-(indol-3-yl)ethyl]-1-oxa-3-oxo-4,9-diazaspiro[5,5]undecane",O=C1COC2(CCN(CCC3=C[NH]C4=C3C=CC=C4)CC2)CN1,-2.99,313.401,1.69139999999999,89.3694,23,3,2,5,3,122,2,2,2,4,57.36,True
C-2105,"3-(1-aziridinyl)-4,6-dinitro-(n-ethyl)benzamide",CCNC(=O)C1=CC(=C(C=C1[N+]([O-])=O)[N+]([O-])=O)N2CC2,-3.13,280.24,1.0727,69.971,20,6,1,9,5,106,1,1,1,2,118.39,True
C-2107,4-benzoylaminophenyl  acetate;  acetic acid 4-benzoylaminophenyl ester,CC(=O)OC1=CC=C(NC(=O)C2=CC=CC=C2)C=C1,-4.14,255.273,2.8642,72.1462,19,3,1,4,3,96,2,0,0,2,55.4,True
C-2115,ibuprofen ester iic; n-methyl-n-[2-(2'-(4''-isobutylphenyl)propanoyloxy)acetyl]glycineamide,CC(C)CC1=CC=C(C=C1)C(C)C(=O)OCC(=O)N(C)CC(N)=O,-3.41,334.416,1.47549999999999,91.1894,24,4,1,6,8,132,1,0,0,1,89.7,True
C-2118,tropicamide,CCN(CC1=CC=NC=C1)C(=O)C(CO)C2=CC=CC=C2,-1.7,284.359,2.2062,81.5968,21,3,1,4,6,110,2,0,0,2,53.43,True
C-2125,"(-)-(r)-1,2-bis(2,6-dioxopiperazin-4-yl)propane;  nsc-129943;  icrf 159;  razoxane (+/-)",CC(CN1CC(=O)NC(=O)C1)N2CC(=O)NC(=O)C2,-1.27,268.272999999999,-2.70829999999999,63.7744,19,6,2,8,3,104,0,2,2,2,98.82,True
C-2131,"3-(1-aziridinyl)-4,6-dinitro-(n-propyl)benzamide",CCCNC(=O)C1=CC(=C(C=C1[N+]([O-])=O)[N+]([O-])=O)N2CC2,-3.89,294.267,1.46279999999999,74.588,21,6,1,9,6,112,1,1,1,2,118.39,True
C-2137,cephradine,CC1=C(N2C(SC1)C(NC(=O)C(N)C3=CCC=CC3)C2=O)C(O)=O,-1.22,349.412,0.3486,89.7909,24,5,3,8,4,128,0,1,3,3,112.73,True
C-2139,"3-(1-aziridinyl)-4,6-dinitro-(n-isopropyl)benzamide",CC(C)NC(=O)C1=CC(=C(C=C1[N+]([O-])=O)[N+]([O-])=O)N2CC2,-3.5,294.267,1.46119999999999,74.566,21,6,1,9,5,112,1,1,1,2,118.39,True
C-2148,nifurtoinol;  3-(hydroxymethyl)nitrofurantoin,OCN1C(=O)CN(/N=C/C2=CC=C(O2)[N+]([O-])=O)C1=O,-2.91,268.185,-0.2643,58.9902,19,7,1,10,4,100,1,1,1,2,129.49,True
C-2169,"3-(aziridin-1-yl)-4,6-dinitro-n-(isobutyl)benzamide",CC(C)CNC(=O)C1=CC(=C(C=C1[N+]([O-])=O)[N+]([O-])=O)N2CC2,-3.85,308.294,1.70879999999999,79.135,22,6,1,9,6,118,1,1,1,2,118.39,True
C-2190,"3-(aziridin-1-yl)-4,6-dinitro-n-(tert-butyl)benzamide",CC(C)(C)NC(=O)C1=CC(=C(C=C1[N+]([O-])=O)[N+]([O-])=O)N2CC2,-3.17,308.294,1.8513,79.183,22,6,1,9,4,118,1,1,1,2,118.39,True
C-2197,"3-(aziridin-1-yl)-4,6-dinitro-n,n-(diethyl)benzamide",CCN(CC)C(=O)C1=CC(=C(C=C1[N+]([O-])=O)[N+]([O-])=O)N2CC2,-2.59,308.294,1.80499999999999,79.2153,22,6,0,9,6,118,1,1,1,2,109.6,True
C-2199,(+)-pancratistatin,OC1C(O)C(O)C2C(NC(=O)C3=C(O)C4=C(OCO4)C=C23)C1O,-3.8,325.272999999999,-2.2263,72.2522,23,8,6,9,0,124,1,1,3,4,148.709999999999,True
C-2206,"5-creatinylamido-2-sulfamoyl-1,3,4-thiadiazole",CN(CC(=O)NC1=NN=C(S1)[S](N)(=O)=O)C(N)=N,-1.14,293.334,-2.05072999999999,64.456,18,7,4,12,4,100,1,0,0,1,168.15,True
C-2212,"1-[3-(aziridin-1-yl)-4,6-dinitrobenzoyl]piperidine",[O-][N+](=O)C1=C(C=C(C(=O)N2CCCCC2)C(=C1)[N+]([O-])=O)N3CC3,-3.17,320.305,1.94909999999999,81.7183,23,6,0,9,4,122,1,2,2,3,109.6,True
C-2220,"n-[3-(aziridin-1-yl)-4,6-dinitrobenzoyl]morpholine",[O-][N+](=O)C1=C(C=C(C(=O)N2CCOCC2)C(=C1)[N+]([O-])=O)N3CC3,-2.89,322.277,0.795399999999999,78.6863,23,7,0,10,4,122,1,2,2,3,118.83,True
C-2240,3-(hydroxymethyl)phenytoin,OCN1C(=O)NC(C1=O)(C2=CC=CC=C2)C3=CC=CC=C3,-3.3,282.299,1.43179999999999,76.1275,21,3,2,5,3,106,2,1,1,3,69.64,True
C-2290,acetic acid 4-(4-acetylaminobenzoylamino)phenyl ester,CC(=O)NC1=CC=C(C=C1)C(=O)NC2=CC=C(OC(C)=O)C=C2,-4.41,312.325,2.8226,86.4499,23,4,2,6,4,118,2,0,0,2,84.5,True
C-2294,ampicillin,CC1(C)SC2C(NC(=O)C(N)C3=CC=CC=C3)C(=O)N2C1C(O)=O,-1.99,349.412,0.3181,89.0289,24,5,3,8,4,128,1,2,2,3,112.729999999999,True
C-2299,cephalexin,CC1=C(N2C(SC1)C(NC(=O)C(N)C3=CC=CC=C3)C2=O)C(O)=O,-1.58,347.396,0.444899999999998,88.7289,24,5,3,8,4,126,1,1,2,3,112.73,True
C-2300,n4-acetylsulfadiazine,CC(=O)NC1=CC=C(C=C1)[S](=O)(=O)NC2=NC=CC=N2,-3.59,292.32,1.23579999999999,73.5862,20,5,2,8,4,104,2,0,0,2,101.05,True
C-2304,imazaquine,CC(C)C1(C)N=C(NC1=O)C2=NC3=C(C=CC=C3)C=C2C(O)=O,-3.72,311.341,2.2241,86.625,23,4,2,6,3,118,2,0,1,3,91.65,True
C-2318,n-benzoyl-o-acetyl-l-tyrosinamide,CC(=O)OC1=CC=C(CC(NC(=O)C2=CC=CC=C2)C(N)=O)C=C1,-3.89,326.352,1.43829999999999,88.3456,24,4,2,6,6,124,2,0,0,2,98.49,True
C-2321,"3-[2-(n-methylguanidino)-acetylamino]-n-(5-sulfamoyl-[1,3,4]thiadiazol-2-yl)propionamide",CN(CC(=O)NCCC(=O)NC1=NN=C(S1)[S](N)(=O)=O)C(N)=N,-1.13,364.413,-2.54442999999999,82.0827,23,8,5,14,7,128,1,0,0,1,197.25,True
C-2330,nitrofuranylamide derivative (lee 952);  n-methyl-n-[4-(2-morpholin-4-ylethoxy)benzyl]-5-nitro-2-furamide,CN(CC1=CC=C(OCCN2CCOCC2)C=C1)C(=O)C3=CC=C(O3)[N+]([O-])=O,-2.29,389.408,2.17099999999999,100.3559,28,7,0,9,8,150,2,1,1,3,98.2899999999999,True
C-2334,2-(n4-acetyl)sulfathiazole,CC(=O)NC1=CC=C(C=C1)[S](=O)(=O)NC2=NC=CS2,-3.43,297.361,1.90229999999999,73.6682,19,5,2,8,4,100,2,0,0,2,88.16,True
C-2339,"entacapone analog (2a);  (e)-2-cyano-n,n-diethyl-3-[3-n-ethylcarbamoyloxy-4-hydroxy-5-nitrophenyl]propenamide",CCNC(=O)OC1=C(O)C(=CC(=C1)\C=C(C#N)/C(=O)N(CC)CC)[N+]([O-])=O,-3.18,376.369,2.18408,95.9799,27,7,2,10,7,144,1,0,0,1,145.799999999999,True
C-2344,amoxicillin,CC1(C)SC2C(NC(=O)C(N)C3=CC=C(O)C=C3)C(=O)N2C1C(O)=O,-2.17,365.411,0.0236999999999995,90.6937,25,6,4,9,4,134,1,2,2,3,132.96,True
C-2346,"4-(4-bromo-2-fluorophenylamino)-5-fluoro-1-methyl-6-oxo-1,6-dihydropyridine-3-carboxamide",CN1C=C(C(N)=O)C(=C(F)C1=O)NC2=C(F)C=C(Br)C=C2,-4.14,358.142,2.2685,77.5416,21,4,2,8,3,110,2,0,0,2,77.12,True
C-2351,"theophyllin-7-ylmethyl 3-(n,n-diethylcarbamoyl)propionate; n,n-diethylsuccinamic acid theophyllin-7-ylmethyl ester",CCN(CC)C(=O)CCC(=O)OC[N]1C=NC2=C1C(=O)N(C)C(=O)N2C,-1.14,365.39,-0.416999999999998,93.469,26,9,0,10,7,142,2,0,0,2,108.43,True