ID,Name,SMILES,LogS,MolWt,MolLogP,MolMR,HeavyAtomCount,NumHAcceptors,NumHDonors,NumHeteroatoms,NumRotatableBonds,NumValenceElectrons,NumAromaticRings,NumSaturatedRings,NumAliphaticRings,RingCount,TPSA,IsAmide
E-1269,Amikacin,NCCC(O)C(=O)NC2CC(N)C(OC1OC(CN)C(O)C(O)C1O)C(O)C2OC3OC(CO)C(O)C(N)C3O,-0.5,585.608,-8.42420000000001,131.4257,40,17,13,18,10,234,0,3,3,3,331.939999999999,True
E-1280,phenytoin,O=C1NC(=O)C(N1)(c2ccccc2)c3ccccc3,-3.99,252.273,1.76959999999999,70.3384,19,2,2,4,2,94,2,1,1,3,58.2,True
F-1,"spiro[5,6-dihydroimidazo[2,3-b][3]benzazepine-11,4'-piperidine]-3-carboxamide",NC(=O)C1=CN=C2N1CCC1=C(C=CC=C1)C21CCNCC1,-2.43,296.374,1.2076,83.7746,22,4,2,5,1,114,2,1,2,4,72.94,True
F-3,"6-hydroxy-4a,5,5a,7,8,13a,15,15a,15b,16-decahydro-2H-4,6-methanoindolo[3,2,1-ij]oxepino[2,3,4-de]pyrrolo[2,3-h]quinoline-6-ium-14-one",C1C[N+]2(CC3=CCOC4CC(=O)N5C6C4C3CC2C61C7=CC=CC=C75)O,-1.28,351.426,1.99649999999999,93.6169,26,3,1,5,0,134,1,4,6,7,49.7699999999999,True
F-53,"5,5-dimethyl-2-phenyl-3H-imidazol-4-one",CC1(C)N=C(C2=CC=CC=C2)NC1=O,-0.85,188.23,1.3416,55.2007,14,2,1,3,1,72,1,0,1,2,41.46,True
F-72,"3,3-diethylpiperidine-2,6-dione",CCC1(CC)CCC(=O)NC1=O,-4.53,169.224,1.22939999999999,45.3987,12,2,1,3,2,68,0,1,1,1,46.17,True
F-80,"3,6-diethyl-3,6-dimethylpiperazine-2,5-dione",CCC1(C)NC(=O)C(C)(CC)NC1=O,-1.92,198.265999999999,0.569799999999999,53.6774,14,2,2,4,2,80,0,1,1,1,58.2,True
F-90,N-heptylpyridine-3-carboxamide,CCCCCCCNC(=O)C1=CN=CC=C1,-3.2,220.316,2.7818,65.3292,16,2,1,3,7,88,1,0,0,1,41.99,True
F-93,"2-Methyl-4,6-dioxo-1H-pyrimidine-5-carboxamide",CC1=NC(=O)C(C(N)=O)C(=O)N1,-2.41,169.14,-1.8373,38.9431,12,3,2,6,1,64,0,0,1,1,101.62,True
F-98,"3,4-Dihydro-1H-1,4-benzodiazepine-2,5-dione",O=C1CNC(=O)C2=C(C=CC=C2)N1,-2.85,176.175,0.3685,47.4049,13,2,2,4,0,66,1,0,1,2,58.2,True
F-100,N-(3-oxo-1H-2-benzofuran-5-yl)acetamide,CC(=O)NC1=CC2=C(C=C1)COC2=O,-2.6,191.185999999999,1.3154,49.8652,14,3,1,4,1,72,1,0,1,2,55.4,True
F-108,"5,5-Bis[(E)-but-2-enyl]-1,3-diazinane-2,4,6-trione",CC=CCC1(CC=CC)C(=O)NC(=O)NC1=O,-2.2,236.271,1.27119999999999,62.9764,17,3,2,5,4,92,0,1,1,1,75.27,True
F-113,"5,5-diethyl-2-sulfanylidene-1,3-diazinane-4,6-dione",CCC1(CC)C(=O)NC(=S)NC1=O,-2.32,200.262999999999,0.323699999999999,51.8984,13,3,2,5,2,72,0,1,1,1,58.2,True
F-122,"3,3,6,6-tetraethylpiperazine-2,5-dione",CCC1(CC)NC(=O)C(CC)(CC)NC1=O,-2.31,226.319999999999,1.34999999999999,62.9114,16,2,2,4,4,92,0,1,1,1,58.2,True
F-138,2-[[2-[(2-aminoacetyl)amino]acetyl]amino]acetic acid,NCC(=O)NCC(=O)NCC(=O)O,-0.53,189.170999999999,-2.73789999999999,42.7096,13,4,4,7,5,74,0,0,0,0,121.52,True
F-154,2-[[2-[2-[(2-aminoacetyl)amino]propanoylamino]-4-methylpentanoyl]amino]-3-methylbutanoic acid,CC(C)CC(NC(=O)C(C)NC(=O)CN)C(=O)NC(C(=O)O)C(C)C,-2.13,358.439,-0.793899999999996,92.4493,25,5,5,9,10,144,0,0,0,0,150.619999999999,True
F-159,2-acetamido-3-methylpentanoic acid,CCC(C)C(NC(C)=O)C(=O)O,-0.69,173.212,0.6218,44.6955,12,2,2,4,4,70,0,0,0,0,66.4,True
F-163,2-acetamido-4-methylsulfanylbutanoic acid,CSCCC(NC(C)=O)C(=O)O,0.03,191.251999999999,0.3288,48.2395,12,3,2,5,5,70,0,0,0,0,66.4,True
F-166,2-[(2-aminoacetyl)amino]-4-methylpentanoic acid,CC(C)CC(NC(=O)CN)C(=O)O,-0.43,188.226999999999,-0.439399999999998,48.0759,13,3,3,5,5,76,0,0,0,0,92.42,True
F-170,2-[(2-amino-3-methylbutanoyl)amino]-3-methylbutanoic acid,CC(C)C(N)C(=O)NC(C(=O)O)C(C)C,-0.4,216.280999999999,0.1951,57.2179,15,3,3,5,5,88,0,0,0,0,92.42,True
F-172,2-[(2-amino-4-methylpentanoyl)amino]-3-methylbutanoic acid,CC(C)CC(N)C(=O)NC(C(=O)O)C(C)C,-0.17,230.308,0.585199999999999,61.8349,16,3,3,5,6,94,0,0,0,0,92.42,True
F-173,2-acetamidopentanedioic acid,CC(=O)NC(CCC(=O)O)C(=O)O,-0.71,189.167,-0.559499999999999,42.1103,13,3,3,6,5,74,0,0,0,0,103.7,True
F-176,4-Amino-2-[(ethoxycarbonothioyl)sulfanyl]-4-oxobutanoic acid,CCOC(=S)SC(CC(N)=O)C(=O)O,-1.7,237.302,0.3696,57.0502,14,5,2,7,5,80,0,0,0,0,89.62,True
F-180,2-[(2-amino-4-methylpentanoyl)amino]-4-methylpentanoic acid,CC(C)CC(N)C(=O)NC(CC(C)C)C(=O)O,-0.69,244.334999999999,0.9753,66.4519,17,3,3,5,7,100,0,0,0,0,92.42,True
F-183,2-[[2-[(2-amino-4-methylpentanoyl)amino]acetyl]amino]acetic acid,CC(C)CC(N)C(=O)NCC(=O)NCC(=O)O,0.31,245.278999999999,-1.32319999999999,61.0856,17,4,4,7,7,98,0,0,0,0,121.52,True
F-184,N-(2-Bromo-4-methylpentanoyl)alanylalanine,CC(C)CC(Br)C(=O)NC(C)C(=O)NC(C)C(=O)O,-1.43,337.214,0.889999999999999,75.0152,19,3,3,7,7,110,0,0,0,0,95.5,True
F-185,2-[[2-[(2-aminoacetyl)amino]acetyl]amino]-4-methylpentanoic acid,CC(C)CC(NC(=O)CNC(=O)CN)C(=O)O,-0.11,245.278999999999,-1.32319999999999,61.0856,17,4,4,7,7,98,0,0,0,0,121.52,True
F-189,5-nitrothiophene-2-carbohydrazide,C1=C(SC(=C1)[N+](=O)[O-])C(=O)NN,-1.97,187.179999999999,0.2598,42.627,12,5,2,7,2,64,1,0,0,1,98.2599999999999,True
F-195,N'-butanoylbutanehydrazide,CCCC(=O)NNC(=O)CCC,-1.0,172.227999999999,0.733999999999999,46.1014,12,2,2,4,4,70,0,0,0,0,58.2,True
F-210,N-pentanoylpentanehydrazide,CCCCC(=O)NNC(=O)CCCC,-2.16,200.281999999999,1.51419999999999,55.3354,14,2,2,4,6,82,0,0,0,0,58.2,True
F-213,"5,5-dimethyl-3-(phenylmethyl)imidazolidine-2,4-dione",CC1(C)NC(=O)N(CC2=CC=CC=C2)C1=O,-1.8,218.256,1.517,59.6027,16,2,1,4,2,84,1,1,1,2,49.41,True
F-232,2-hydroxy-N-[6-(2-hydroxypropanoylamino)hexyl]propanamide,CC(O)C(=O)NCCCCCCNC(=O)C(C)O,-0.7,260.333999999999,-0.459199999999999,67.849,18,4,4,6,9,106,0,0,0,0,98.66,True
F-255,"(2~{Z})-2-(1,3-thiazole-2-carbonylhydrazinylidene)propanoic acid",CC(=NNC(=O)C1=NC=CS1)C(=O)O,-1.93,213.218,0.3334,50.325,14,5,2,7,3,74,1,0,0,1,91.65,True
F-265,(2~{Z})-2-(pyridine-4-carbonylhydrazinylidene)propanoic acid,CC(=NNC(=O)C1=CC=NC=C1)C(=O)O,-3.31,207.188999999999,0.271899999999999,52.448,15,4,2,6,3,78,1,0,0,1,91.65,True
F-296,"(5~{Z})-5-[(3,4-dihydroxyphenyl)methylidene]-2-sulfanylidene-1,3-thiazolidin-4-one",O=C1NC(=S)SC1=CC1=CC(O)=C(O)C=C1,-3.34,253.304,1.58659999999999,66.0803,16,5,3,6,1,82,1,1,1,2,69.56,True
F-310,"1,3-Benzodioxole-5-carbohydrazide",NNC(=O)C1=CC2=C(C=C1)OCO2,-0.6,180.162999999999,0.0187999999999999,44.2186,13,4,2,5,1,68,1,0,1,2,73.58,True
F-320,"5-ethyl-5-(2-hydroxyethyl)-2-sulfanylidene-1,3-diazinane-4,6-dione",CCC1(CCO)C(=O)NC(=S)NC1=O,-1.47,216.262,-0.7039,53.3102,14,4,3,6,3,78,0,1,1,1,78.43,True
F-333,"5,5-dipropyl-1,3-diazinane-2,4,6-trione",CCCC1(CCC)C(=O)NC(=O)NC1=O,-2.53,212.249,0.938999999999999,53.9304,15,3,2,5,4,84,0,1,1,1,75.27,True
F-338,phenylmethyl N-[2-[(2-amino-2-oxoethyl)amino]-2-oxoethyl]carbamate,NC(=O)CNC(=O)CNC(=O)OCC1=CC=CC=C1,-2.35,265.268999999999,-0.485699999999999,66.8338,19,4,3,7,6,102,1,0,0,1,110.52,True
F-340,"5-butyl-5-ethyl-1,3-diazinane-2,4,6-trione",CCCCC1(CC)C(=O)NC(=O)NC1=O,-1.67,212.249,0.938999999999999,53.9304,15,3,2,5,4,84,0,1,1,1,75.27,True
F-345,"(4E)-4-[(1,3-Thiazol-2-ylcarbonyl)hydrazono]pentanoic acid",CC(CCC(=O)O)=NNC(=O)C1=NC=CS1,-1.73,241.272,1.11359999999999,59.559,16,5,2,7,5,86,1,0,0,1,91.6499999999999,True
F-355,N-Hydroxy-4-nitrobenzamide,C1=CC(=CC=C1C(=O)NO)[N+](=O)[O-],-1.94,182.135,0.7138,42.3491,13,4,2,6,2,68,1,0,0,1,92.47,True
F-357,N-hydroxy-N-methyl-4-nitrobenzamide,CN(C(=O)C1=CC=C(C=C1)[N+](=O)[O-])O,-2.87,196.161999999999,1.05599999999999,46.9764,14,4,1,6,2,74,1,0,0,1,83.68,True
F-359,N-Methoxy-4-nitrobenzamide,CONC(=O)C1=CC=C(C=C1)[N+](=O)[O-],-2.28,196.161999999999,0.886,47.5716,14,4,1,6,3,74,1,0,0,1,81.47,True
F-361,phenylmethyl N-(2-amino-2-oxoethyl)carbamate,NC(=O)CNC(=O)OCC1=CC=CC=C1,-1.88,208.216999999999,0.398099999999999,53.8241,15,3,2,5,4,80,1,0,0,1,81.42,True
F-363,N-[2-(5-methoxy-1H-indol-3-yl)ethyl]acetamide,COC1=CC2=C(C=C1)NC=C2CCNC(C)=O,-5.09,232.282999999999,1.8551,67.2384,17,2,2,4,4,90,2,0,0,2,54.12,True
F-369,(4Z)-4-(Pyridine-4-carbonylhydrazinylidene)pentanoic acid,CC(CCC(=O)O)=NNC(=O)C1=CC=NC=C1,-1.59,235.243,1.0521,61.682,17,4,2,6,5,90,1,0,0,1,91.6499999999999,True
F-374,vinbarbital,CCC=C(C)C1(CC)C(=O)NC(=O)NC1=O,-2.31,224.26,1.10509999999999,58.4534,16,3,2,5,3,88,0,1,1,1,75.27,True
F-375,"5-(2-Hydroxyethyl)-5-isobutyl-2-thioxodihydro-4,6(1H,5H)-pyrimidinedione",CC(C)CC1(CCO)C(=O)NC(=S)NC1=O,-2.62,244.316,-0.0677999999999999,62.4742,16,4,3,6,4,90,0,1,1,1,78.43,True
F-379,"5-(2-hydroxyethyl)-5-propyl-2-sulfanylidene-1,3-diazinane-4,6-dione",CCCC1(CCO)C(=O)NC(=S)NC1=O,-1.61,230.289,-0.3138,57.9272,15,4,3,6,4,84,0,1,1,1,78.43,True
F-381,2-(benzoylamino)-2-methylpropanoic acid,CC(C)(NC(=O)C1=CC=CC=C1)C(=O)O,-0.76,207.228999999999,1.2796,55.623,15,2,2,4,3,80,1,0,0,1,66.4,True
F-394,ethyl 2-(benzoylamino)-2-methylpropanoate,CCOC(=O)C(C)(C)NC(=O)C1=CC=CC=C1,-1.19,235.283,1.7581,64.6202,17,3,1,4,4,92,1,0,0,1,55.4,True
F-395,(4-acetamidophenyl) ethyl carbonate,CCOC(=O)OC1=CC=C(NC(C)=O)C=C1,-2.67,223.227999999999,2.1803,58.3957,16,4,1,5,3,86,1,0,0,1,64.63,True
F-397,"2-(1,3-dioxoisoindol-2-yl)-2-methylbutanoic acid",CCC(C)(C(=O)O)N1C(=O)C2=C(C=CC=C2)C1=O,-1.91,247.249999999999,1.5359,63.2738,18,3,1,5,3,94,1,0,1,2,74.68,True
F-402,N-Acetyl-O-benzoylserine,CC(=O)NC(COC(=O)C1=CC=CC=C1)C(=O)O,-3.22,251.238,0.432699999999999,61.965,18,4,2,6,5,96,1,0,0,1,92.7,True
F-403,2-[[2-amino-3-(4-hydroxyphenyl)propanoyl]amino]acetic acid,NC(CC1=CC=C(O)C=C1)C(=O)NCC(=O)O,-1.1,238.242999999999,-0.5372,60.4317,17,4,4,6,5,92,1,0,0,1,112.649999999999,True
F-404,"5-[(4-methoxyphenyl)methyl]-3-methylimidazolidine-2,4-dione",COC1=CC=C(CC2NC(=O)N(C)C2=O)C=C1,-0.89,234.255,0.787899999999999,61.7877,17,3,1,5,3,90,1,1,1,2,58.64,True
F-409,"N-[(4-chlorophenyl)carbamoyl]-2,6-difluorobenzamide",O=C(NC(=O)C1=C(F)C=CC=C1F)NC1=CC=C(Cl)C=C1,-6.54,310.687,3.5801,74.2949,21,2,2,7,2,108,2,0,0,2,58.2,True
F-410,"1-methyl-3-(2,4,6-trioxo-1,3-diazinan-5-yl)thiourea",CNC(=S)NC1C(=O)NC(=O)NC1=O,-0.46,216.222,-2.1851,50.2628,14,4,4,8,1,76,0,1,1,1,99.3299999999999,True
F-412,2-[[4-(acetylsulfamoyl)phenyl]carbamoyl]benzoic acid,CC(=O)NS(=O)(=O)C1=CC=C(NC(=O)C2=C(C(=O)O)C=CC=C2)C=C1,-2.52,362.363,1.4619,88.799,25,5,3,9,5,130,2,0,0,2,129.64,True
F-415,"2,2-Dibutyl-N-hydroxyhexanamide",CCCCC(CCCC)(CCCC)C(=O)NO,-4.16,243.390999999999,4.0488,70.9372,17,2,2,3,10,102,0,0,0,0,49.33,True
F-420,N-Hydroxy-N-phenylbenzamide,O=C(C1=CC=CC=C1)N(O)C1=CC=CC=C1,-2.73,213.236,2.7226,61.48,16,2,1,3,2,80,2,0,0,2,40.54,True
F-421,2-acetamido-3-phenylpropanoic acid,CC(=O)NC(CC1=CC=CC=C1)C(=O)O,-1.41,207.228999999999,0.818399999999999,55.3865,15,2,2,4,4,80,1,0,0,1,66.4,True
F-426,ethyl 2-acetamido-3-phenylpropanoate,CCOC(=O)C(CC1=CC=CC=C1)NC(C)=O,-1.86,235.283,1.2969,64.3837,17,3,1,4,5,92,1,0,0,1,55.4,True
F-427,"2-diethylamino-N-(2,6-dimethylphenyl)acetamide",CCN(CC)CC(=O)NC1=C(C)C=CC=C1C,-1.78,234.343,2.58374,72.3337,17,2,1,3,5,94,1,0,0,1,32.34,True
F-432,ethyl 2-(benzoylamino)-3-(4-hydroxyphenyl)propanoate,CCOC(=O)C(CC1=CC=C(O)C=C1)NC(=O)C1=CC=CC=C1,-3.33,313.353,2.2964,86.14,23,4,2,5,6,120,2,0,0,2,75.63,True
F-435,"2-(3,5-dibromo-4-oxopyridin-1-yl)-~{N},~{N}-diethylacetamide",CCN(CC)C(=O)CN1C=C(Br)C(=O)C(Br)=C1,-2.31,366.053,2.2417,74.03,17,3,0,6,4,94,1,0,0,1,42.31,True
F-436,"2-(3,5-diiodo-4-oxopyridin-1-yl)-~{N},~{N}-diethylacetamide",CCN(CC)C(=O)CN1C=C(I)C(=O)C(I)=C1,-3.18,460.053,1.9259,84.064,17,3,0,6,4,94,1,0,0,1,42.31,True
F-438,"5-pentan-2-yl-5-prop-2-enyl-1,3-diazinane-2,4,6-trione",C=CCC1(C(C)CCC)C(=O)NC(=O)NC1=O,-2.36,238.286999999999,1.35109999999999,63.0004,17,3,2,5,5,94,0,1,1,1,75.27,True
F-439,"2,2,4-triethyl-n-hydroxyoctanamide",CCCCC(CC)CC(CC)(CC)C(=O)NO,-3.35,243.390999999999,3.9047,70.8672,17,2,2,3,9,102,0,0,0,0,49.33,True
F-440,"2,2-diethyl-n-hydroxydecanamide",CCCCCCCCC(CC)(CC)C(=O)NO,-5.22,243.391,4.0488,70.9372,17,2,2,3,10,102,0,0,0,0,49.33,True
F-441,"N-hydroxy-4-methyl-2,2-bis(2-methylpropyl)pentanamide",CC(C)CC(CC(C)C)(CC(C)C)C(=O)NO,-4.0,243.391,3.6165,70.7272,17,2,2,3,7,102,0,0,0,0,49.33,True
F-442,"N-hydroxy-2,2-dipropyloctanamide",CCCCCCC(CCC)(CCC)C(=O)NO,-2.82,243.391,4.0488,70.9372,17,2,2,3,10,102,0,0,0,0,49.33,True
F-443,"N-hydroxy-2,2-dimethyldodecanamide",CCCCCCCCCCC(C)(C)C(=O)NO,-4.8,243.391,4.0488,70.9372,17,2,2,3,10,102,0,0,0,0,49.33,True
F-446,"5-butyl-5-(2-hydroxyethyl)-2-sulfanylidene-1,3-diazinane-4,6-dione",CCCCC1(CCO)C(=O)NC(=S)NC1=O,-2.17,244.316,0.0762999999999999,62.5442,16,4,3,6,5,90,0,1,1,1,78.43,True
F-448,"2-(3-hydroxy-2,5-dioxo-1-phenylpyrrolidin-3-yl)acetic acid",O=C(O)CC1(O)CC(=O)N(C2=CC=CC=C2)C1=O,-0.68,249.222,0.155699999999999,60.7546,18,4,2,6,3,94,1,1,1,2,94.91,True
F-449,2-Ethyl-N-hydroxy-2-(4-methylbenzyl)butanamide,CCC(CC)(CC1=CC=C(C)C=C1)C(=O)NO,-3.35,235.327,2.84931999999999,67.8272,17,2,2,3,5,94,1,0,0,1,49.33,True
F-451,2-(benzoylamino)-3-hydroxypropanoic acid,O=C(NC(CO)C(=O)O)C1=CC=CC=C1,-0.91,209.201,-0.1381,52.4178,15,3,3,5,4,80,1,0,0,1,86.63,True
F-454,N-Hydroxy-2-phenyl-2-propylpentanamide,CCCC(CCC)(C(=O)NO)C1=CC=CC=C1,-2.89,235.327,3.03,67.8652,17,2,2,3,6,94,1,0,0,1,49.33,True
F-455,"N-Hydroxy-3-mesityl-2,2-dimethylpropanamide",CC1=CC(C)=C(CC(C)(C)C(=O)NO)C(C)=C1,-3.52,235.327,2.68596,68.0672,17,2,2,3,3,94,1,0,0,1,49.33,True
F-457,"4,4-diethyl-1-methyl-2-phenylpyrazolidine-3,5-dione",CCC1(CC)C(=O)N(C)N(C2=CC=CC=C2)C1=O,-2.69,246.31,2.213,69.713,18,2,0,4,3,96,1,1,1,2,40.62,True
F-470,"5-(2-hydroxyethyl)-5-(3-methylbutyl)-2-sulfanylidene-1,3-diazinane-4,6-dione",CC(C)CCC1(CCO)C(=O)NC(=S)NC1=O,-2.56,258.343,0.3223,67.0912,17,4,3,6,5,96,0,1,1,1,78.43,True
F-471,"5-(2-Hydroxyethyl)-5-pentyl-2-thioxodihydro-4,6(1H,5H)-pyrimidinedione",CCCCCC1(CCO)C(=O)NC(=S)NC1=O,-2.38,258.343,0.466399999999999,67.1612,17,4,3,6,6,96,0,1,1,1,78.43,True
F-472,"2-(5-benzyl-2,4-dioxoimidazolidin-1-yl)acetic acid",O=C(O)CN1C(=O)NC(=O)C1CC1=CC=CC=C1,-1.79,248.238,0.2341,61.8145,18,3,2,6,4,94,1,1,1,2,86.71,True
F-478,"5-(2-hydroxyethyl)-5-(2-methylpentyl)-2-sulfanylidene-1,3-diazinane-4,6-dione",CCCC(C)CC1(CCO)C(=O)NC(=S)NC1=O,-3.09,272.37,0.712399999999999,71.7082,18,4,3,6,6,102,0,1,1,1,78.43,True
F-479,"5-(2-Ethylbutyl)-5-(2-hydroxyethyl)-2-thioxodihydro-4,6(1H,5H)-pyrimidinedione",CCC(CC)CC1(CCO)C(=O)NC(=S)NC1=O,-3.14,272.37,0.712399999999999,71.7082,18,4,3,6,6,102,0,1,1,1,78.43,True
F-486,"5-(1-cyclohexenyl)-1,5-dimethyl-1,3-diazinane-2,4,6-trione",CN1C(=O)NC(=O)C(C)(C2=CCCCC2)C1=O,-2.91,236.270999999999,1.20129999999999,60.9667,17,3,1,5,1,92,0,1,2,2,66.48,True
F-491,"N-(2-sulfamoyl-1,3-benzothiazol-6-yl)acetamide",CC(=O)NC1=CC2=C(C=C1)N=C(S(N)(=O)=O)S2,-3.16,271.323,0.9021,65.2969,17,5,2,8,2,90,2,0,0,2,102.15,True
F-511,"4,4-Diethyl-5-oxo-1-phenyl-4,5-dihydro-1H-pyrazol-3-yl acetate",CCC1(CC)C(=O)N(C2=CC=CC=C2)N=C1OC(C)=O,-3.54,274.32,2.7162,76.144,20,4,0,5,3,106,1,0,1,2,58.97,True
F-521,2-acetamido-3-(4-hydroxyphenyl)propanoic acid,CC(=O)NC(CC1=CC=C(O)C=C1)C(=O)O,0.01,223.227999999999,0.523999999999999,57.0513,16,3,3,5,4,86,1,0,0,1,86.63,True
F-524,2-[(2-aminoacetyl)amino]-3-(4-hydroxyphenyl)propanoic acid,NCC(=O)NC(CC1=CC=C(O)C=C1)C(=O)O,-0.73,238.243,-0.537199999999999,60.4317,17,4,4,6,5,92,1,0,0,1,112.65,True
F-535,2-[(2-amino-2-phenylacetyl)amino]acetic acid,NC(C(=O)NCC(=O)O)C1=CC=CC=C1,-1.41,208.217,-0.112799999999999,54.0159,15,3,3,5,4,80,1,0,0,1,92.42,True
F-543,"4-[(1-methoxy-1-oxo-3-phenylpropan-2-yl)amino]-4-oxo-3-[(2,2,2-trifluoroacetyl)amino]butanoic acid",COC(=O)C(CC1=CC=CC=C1)NC(=O)C(CC(=O)O)NC(=O)C(F)(F)F,-2.66,390.314,0.408699999999999,84.3312,27,5,3,11,8,148,1,0,0,1,121.8,True
F-547,N-(9H-Fluoren-2-yl)acetamide,CC(=O)NC1=CC2=C(C=C1)C1=C(C=CC=C1)C2,-4.24,223.274999999999,3.2162,68.9877,17,1,1,2,1,84,2,0,1,3,29.1,True
F-548,N-(5-chloro-2-nitrophenyl)acetamide,CC(=O)NC1=C(C=CC(=C1)Cl)[N+](=O)[O-],-0.99,214.607999999999,2.2066,52.4101,14,3,1,6,2,74,1,0,0,1,72.24,True
F-559,N-(4-Chlorophenyl)-n-hydroxy-4-methylbenzamide,CC1=CC=C(C(=O)N(O)C2=CC=C(Cl)C=C2)C=C1,-4.42,261.708,3.68442,71.227,18,2,1,4,2,92,2,0,0,2,40.54,True
F-566,Fumaranilic acid,O=C(O)C=CC(=O)NC1=CC=CC=C1,-2.72,191.186,1.26589999999999,51.8475,14,2,2,4,3,72,1,0,0,1,66.3999999999999,True
F-568,"N-[4-[(4-methyl-1,3-thiazol-2-yl)sulfamoyl]phenyl]acetamide",CC(=O)NC1=CC=C(S(=O)(=O)NC2=NC(C)=CS2)C=C1,-4.15,311.388,2.21072,78.4052,20,5,2,8,4,106,2,0,0,2,88.16,True
F-571,"2-[5-[(4-hydroxyphenyl)methyl]-3-methyl-2,4-dioxoimidazolidin-1-yl]acetic acid",CN1C(=O)C(CC2=CC=C(O)C=C2)N(CC(=O)O)C1=O,-0.05,278.264,0.281899999999999,68.1066,20,4,2,7,4,106,1,1,1,2,98.15,True
F-572,2-[(2-amino-4-methylpentanoyl)amino]-3-(4-hydroxyphenyl)propanoic acid,CC(C)CC(N)C(=O)NC(CC1=CC=C(O)C=C1)C(=O)O,-1.58,294.351,0.877499999999999,78.8077,21,4,4,6,7,116,1,0,0,1,112.65,True
F-576,2-[[2-amino-3-(4-hydroxyphenyl)propanoyl]amino]-4-methylpentanoic acid,CC(C)CC(NC(=O)C(N)CC1=CC=C(O)C=C1)C(=O)O,-2.07,294.351,0.877499999999999,78.8077,21,4,4,6,7,116,1,0,0,1,112.65,True
F-588,"2-acetamido-3-(3,4-dichlorophenyl)sulfanylpropanoic acid",CC(=O)NC(CSC1=CC(Cl)=C(Cl)C=C1)C(=O)O,-2.89,308.186,2.6748,72.4265,18,3,2,7,5,98,1,0,0,1,66.4,True
F-590,"2-acetamido-3-(2,6-dichlorophenyl)sulfanylpropanoic acid",CC(=O)NC(CSC1=C(Cl)C=CC=C1Cl)C(=O)O,-2.31,308.186,2.6748,72.4265,18,3,2,7,5,98,1,0,0,1,66.4,True
F-594,"2-(5-benzyl-2,4-dioxo-3-phenylimidazolidin-1-yl)acetic acid",O=C(O)CN1C(=O)N(C2=CC=CC=C2)C(=O)C1CC1=CC=CC=C1,-2.91,324.336,2.1511,87.5998,24,3,1,6,5,122,2,1,1,3,77.92,True
F-600,2-(benzoylamino)-3-hydroxybutanoic acid,CC(O)C(NC(=O)C1=CC=CC=C1)C(=O)O,-1.23,223.228,0.250399999999999,57.0128,16,3,3,5,4,86,1,0,0,1,86.63,True
F-602,2-methyl-4-oxo-4-(phenylamino)butanoic acid,CC(CC(=O)NC1=CC=CC=C1)C(=O)O,0.39,207.228999999999,1.7359,56.4885,15,2,2,4,4,80,1,0,0,1,66.4,True
F-604,"N,N-Dimethyl-2-(phenylsulfonyl)propanamide",CC(C(=O)N(C)C)S(=O)(=O)C1=CC=CC=C1,-0.87,241.312,0.936999999999999,61.7838,16,3,0,5,3,88,1,0,0,1,54.45,True
F-605,2-(benzoylamino)-3-methoxybutanoic acid,COC(C)C(NC(=O)C1=CC=CC=C1)C(=O)O,-1.74,237.255,0.904499999999999,61.803,17,3,2,5,5,92,1,0,0,1,75.63,True
F-608,2-[(3-nitrobenzoyl)amino]propanoic acid,CC(C(=O)O)NC(=O)C1=CC(=CC=C1)[N+](=O)[O-],-1.8,238.199,0.797699999999999,57.6604,17,4,2,7,4,90,1,0,0,1,109.54,True
F-618,2-[[2-[[2-amino-3-(4-hydroxyphenyl)propanoyl]amino]acetyl]amino]acetic acid,NC(CC1=CC=C(O)C=C1)C(=O)NCC(=O)NCC(=O)O,-1.47,295.295,-1.42099999999999,73.4414,21,5,5,8,7,114,1,0,0,1,141.749999999999,True
F-626,2-(4-phenylphenyl)acetamide,NC(=O)CC1=CC=C(C2=CC=CC=C2)C=C1,-3.33,211.264,2.3814,64.7764,16,1,1,2,3,80,2,0,0,2,43.09,True
F-645,2-phenylsulfonylpropanamide,CC(C(N)=O)S(=O)(=O)C1=CC=CC=C1,-1.64,213.258,0.334099999999999,52.2842,14,3,1,5,3,76,1,0,0,1,77.23,True
F-669,2-Hydroxy-3-phenoxy-N-phenylpropanamide,O=C(NC1=CC=CC=C1)C(O)COC1=CC=CC=C1,-2.41,257.289,2.065,73.0155,19,3,2,4,5,98,2,0,0,2,58.56,True
F-670,2-ethoxy-N-hydroxy-N-phenylbenzamide,CCOC1=C(C(=O)N(O)C2=CC=CC=C2)C=CC=C1,-3.37,257.289,3.1213,72.649,19,3,1,4,4,98,2,0,0,2,49.7699999999999,True
F-675,2-[(2-benzamido-2-methylpropanoyl)amino]acetic acid,CC(C)(NC(=O)C1=CC=CC=C1)C(=O)NCC(=O)O,-0.56,264.280999999999,0.395799999999999,68.6327,19,3,3,6,5,102,1,0,0,1,95.5,True
F-680,"2,2-dihydroxy-N,N'-bis(4-methylphenyl)propanediamide",CC1=CC=C(NC(=O)C(O)(O)C(=O)NC2=CC=C(C)C=C2)C=C1,-3.1,314.341,1.56153999999999,86.786,23,4,4,6,4,120,2,0,0,2,98.66,True
F-730,"N,N'-Bis(2-methylphenyl)-2-oxomalonamide",CC1=C(NC(=O)C(=O)C(=O)NC2=C(C)C=CC=C2)C=CC=C1,-2.2,296.326,2.44974,84.6244,22,3,2,5,4,112,2,0,0,2,75.27,True
F-767,"4-Chloro-N,N-dimethylbenzamide",CN(C)C(=O)C1=CC=C(Cl)C=C1,-1.0,183.637999999999,2.0418,49.4695,12,1,0,3,1,64,1,0,0,1,20.31,True
F-768,4-methoxybenzohydrazide,COC1=CC=C(C(=O)NN)C=C1,-1.15,166.179999999999,0.298699999999999,44.6476,12,3,2,4,2,64,1,0,0,1,64.35,True
F-771,"5,5-diethyl-4,6-dioxo-1H-pyrimidin-2-olate",CCC1(C(=O)NC(=NC1=O)[O-])CC,-0.07,183.186999999999,-0.8345,43.5997,13,3,1,5,2,72,0,0,1,1,81.59,True
F-778,"N,N-Dimethyl-4-nitrobenzamide",CN(C)C(=O)C1=CC=C(C=C1)[N+](=O)[O-],-1.27,194.189999999999,1.2966,51.1139,14,3,0,5,2,74,1,0,0,1,63.45,True
F-783,N-Dichloracetyl-DL-serin-methylester,COC(=O)C(CO)NC(=O)C(Cl)Cl,-0.06,230.047,-0.5598,46.5265,13,4,2,7,4,76,0,0,0,0,75.63,True
F-787,"1-[[4-(1,3-benzothiazol-2-yl)phenyl]methyl-ethoxyphosphoryl]pyrrolidin-2-one",CCOP(=O)(CC1=CC=C(C2=NC3=C(C=CC=C3)S2)C=C1)N1CCCC1=O,-3.73,400.44,5.3153,108.9395,27,5,0,7,6,140,3,1,1,4,59.5,True