ID,Name,SMILES,LogS,MolWt,MolLogP,MolMR,HeavyAtomCount,NumHAcceptors,NumHDonors,NumHeteroatoms,NumRotatableBonds,NumValenceElectrons,NumAromaticRings,NumSaturatedRings,NumAliphaticRings,RingCount,TPSA,IsAmide
C-2376,brucine * 4 h2o,COC1=CC2=C(C=C1OC)C34CCN5CC6=CCOC7CC(=O)N2C3C7C6CC45,-2.79,394.471,2.1097,106.513,29,5,0,6,2,152,1,4,6,7,51.24,True
C-2384,sulfaproxyline,CC(C)OC1=CC=C(C=C1)C(=O)N[S](=O)(=O)C2=CC=C(N)C=C2,-4.3,334.397,2.1747,87.7124,23,5,2,7,5,122,2,0,0,2,98.49,True
C-2392,"acetrizoic  acid;  3-acetylamino-2,4,6-triiodobenzoic  acid",CC(=O)NC1=C(I)C=C(I)C(=C1I)C(O)=O,-2.64,556.863,3.157,85.856,16,2,2,7,2,86,1,0,0,1,66.4,True
C-2401,cefroxadine,COC1=C(N2C(SC1)C(NC(=O)C(N)C3=CCC=CC3)C2=O)C(O)=O,-1.89,365.411,-0.0673999999999995,91.1259,25,6,3,9,5,134,0,1,3,3,121.96,True
C-2403,"1-(methylaminoacetylamino)-3-chloro-4,6-disulfamoylbenzene; n-(5-chloro-2,4-disulfamoylphenyl)-2-(methylamino)acetamide",CNCC(=O)NC1=C(C=C(C(=C1)Cl)[S](N)(=O)=O)[S](N)(=O)=O,-1.27,356.813,-1.20729999999999,76.7548,21,6,4,12,5,118,1,0,0,1,161.45,True
C-2408,n4-acetyl-n1-(1-ethyl-2-oxopyrimidin-4-yl)sulfanilamide; 4-(n4-acetylsulfanilamido)-1-ethyl-1h-pyrimidin-2-one; n4-acetylsulfacytine,CCN1C=CC(=NC1=O)N[S](=O)(=O)C2=CC=C(NC(C)=O)C=C2,-2.71,336.373,1.02239999999999,85.7252,23,6,2,9,5,122,2,0,0,2,110.16,True
C-2409,"n4-acetylsulfaethidole; 2-(n4-acetylsulfa)-5-ethyl-1,3,4-thiadiazole",CCC1=NN=C(N[S](=O)(=O)C2=CC=C(NC(C)=O)C=C2)S1,-3.4,326.403,1.8597,80.8412,21,6,2,9,5,112,2,0,0,2,101.05,True
C-2411,"4-(4-bromo-2-fluorophenylamino)-1,5-dimethyl-6-oxo-1,6-dihydropyridine-3-carboxylic acid methoxyamide",CONC(=O)C1=CN(C)C(=O)C(=C1NC2=CC=C(Br)C=C2F)C,-3.28,384.205,2.63012,88.2779,23,5,2,8,4,122,2,0,0,2,72.36,True
C-2423,n3-[(3-hydroxy-2-hydroxymethyl)propanoyloxymethyl]phenytoin,OCC(CO)C(=O)OCN1C(=O)NC(C1=O)(C2=CC=CC=C2)C3=CC=CC=C3,-2.21,384.388,0.583499999999999,97.6623,28,6,3,8,7,146,2,1,1,3,116.169999999999,True
C-2425,"ketoprofen,  ester 4c; n-methyl-n-[2-(2'-(3''-benzoyl-phenyl)propanoyloxy)acetyl]glycineamide",CC(C(=O)OCC(=O)N(C)CC(N)=O)C1=CC(=CC=C1)C(=O)C2=CC=CC=C2,-2.42,382.416,1.508,102.5219,28,5,1,7,8,146,2,0,0,2,106.77,True
C-2428,"4-(4-bromo-2-fluorophenylamino)-n-ethoxy-1,5-dimethyl-6-oxo-1,6-dihydropyridine-3-carboxamide",CCONC(=O)C1=CN(C)C(=O)C(=C1NC2=C(F)C=C(Br)C=C2)C,-3.82,398.232,3.02022,92.8949,24,5,2,8,5,128,2,0,0,2,72.36,True
C-2429,"5,5-diphenylhydantoin-3-methyl  octanoate",CCCCCCCC(=O)OCN1C(=O)NC(C1=O)(C2=CC=CC=C2)C3=CC=CC=C3,-6.52,408.498,4.3432,113.3767,30,4,1,6,10,158,2,1,1,3,75.71,True
C-2438,"4-(4-bromo-2-fluorophenylamino)-5-fluoro-1-methyl-6-oxo-1,6-dihydropyridine-3-carboxylic acid ethoxyamide",CCONC(=O)C1=CN(C)C(=O)C(=C1NC2=CC=C(Br)C=C2F)F,-4.19,402.195,2.8509,88.1159,24,5,2,9,5,128,2,0,0,2,72.36,True
C-2451,"4-(4-bromo-2-fluorophenylamino)-n-(2-hydroxyethoxy)-1,5-dimethyl-6-oxo-1,6-dihydropyridine-3-carboxamide",CN1C=C(C(=O)NOCCO)C(=C(C)C1=O)NC2=C(F)C=C(Br)C=C2,-2.96,414.231,1.99261999999999,94.3066999999999,25,6,3,9,6,134,2,0,0,2,92.59,True
C-2452,2-sulfamoyl-6-(aminoacetamidoacetoxyethoxy)benzothiazole,NCC(=O)NCC(=O)OCCOC1=CC2=C(C=C1)N=C(S2)[S](N)(=O)=O,-1.3,388.427,-1.05939999999999,89.5113,25,9,3,12,8,136,2,0,0,2,163.7,True
C-2468,"2-Amino-2-(4-aminophenyl)-N-[(2R,5S,6S)-3,3-dimethyl-7-oxo-2-(2H-tetrazol-5-yl)-4-thia-1-azabicyclo[3.2.0]hept-6-yl]acetamide",CC1(C)SC2C(NC(=O)C(N)C3=CC=C(N)C=C3)C(=O)N2C1C4=NN=N[NH]4,-1.57,388.457,-0.298499999999999,98.9362,27,8,4,11,4,142,2,2,2,4,155.91,True
C-2469,"2-sulfamoyl-5-pentafluorobenzoylamido-1,3,4-thiadiazole",N[S](=O)(=O)C1=NN=C(NC(=O)C2=C(F)C(=C(F)C(=C2F)F)F)S1,-1.37,374.272,1.13329999999999,65.4673999999999,23,6,2,14,3,124,2,0,0,2,115.04,True
C-2478,prazosin,COC1=CC2=C(C=C1OC)C(=NC(=N2)N3CCN(CC3)C(=O)C4=CC=CO4)N,-5.09,383.408,1.78459999999999,103.8789,28,8,1,9,4,146,3,1,1,4,106.95,True
C-2488,n-[(2-methylamino)acetyl]dorzolamide,CCN(C1CC(C)[S](=O)(=O)C2=C1C=C(S2)[S](N)(=O)=O)C(=O)CNC,-1.21,395.528,0.0704000000000011,91.0117,24,7,2,11,5,136,1,0,1,2,126.639999999999,True
C-2493,indapamide;  1-(3-aminosulfonyl-4-chloro)benzoylamino-2-methylindoline,CC1CC2=C(C=CC=C2)N1NC(=O)C3=CC(=C(Cl)C=C3)[S](N)(=O)=O,-3.79,365.842,2.08339999999999,92.3784,24,4,2,8,3,126,2,0,1,3,92.5,True
C-2494,aztreonam,CC1C(NC(=O)C(=N\OC(C)(C)C(O)=O)/C2=CSC(=N2)N)C(=O)N1[S](O)(=O)=O,-1.64,435.44,-1.17249999999999,95.6505,28,10,4,15,7,154,1,1,1,2,201.579999999999,True
C-2498,2-chloro-4-[(4-'acetylpiperazin-1'-yl)acryloyl]phenyl   benzodioxan-6''-yl  sulfide,CC(=O)N1CCN(CC1)C(=O)/C=C/C2=CC(=C(SC3=CC4=C(OCCO4)C=C3)C=C2)Cl,-2.05,458.967,3.9663,120.875,31,5,0,8,4,162,2,1,2,4,59.08,True
C-2502,n4-[2-(nicotinoylamino)pyrimidin-4-yl]sulfanilamide;  2-(nicotinoylamino)-4-(4-sulfamoylphenylamino)pyrimidine,N[S](=O)(=O)C1=CC=C(NC2=NC(=NC=C2)NC(=O)C3=CC=CN=C3)C=C1,-1.27,370.394,1.5149,95.3201,26,7,3,10,5,132,3,0,0,3,139.959999999999,True
C-2503,"amidotrizoic  acid;  diatrizoic acid;  3,5-diacetamido-2,4,6-triiodobenzoic acid",CC(=O)NC1=C(I)C(=C(I)C(=C1I)C(O)=O)NC(C)=O,-2.01,613.915,3.1154,100.1597,20,3,3,9,3,108,1,0,0,1,95.5,True
C-2507,"2,3-dichloro-4,6-disulfamoyl-1-glycylglycylamidobenzene",NCC(=O)NCC(=O)NC1=C(Cl)C(=C(C=C1[S](N)(=O)=O)[S](N)(=O)=O)Cl,-1.23,434.283,-1.69839999999999,89.9022,25,7,5,15,6,140,1,0,0,1,204.54,True
C-2508,minocycline,CN(C)C1C2CC3CC4=C(C=CC(=C4C(=O)C3=C(O)C2(O)C(=O)C(=C1O)C(N)=O)O)N(C)C,-0.94,457.483,0.186600000000001,118.0011,33,9,5,10,3,176,1,0,3,4,164.63,True
C-2510,2-isopropylphenyl  2'-nitro-4'-[(4''-acetylpiperazin-1''-yl)acryloyl]phenyl  sulfide,CC(C)C1=C(SC2=C(C=C(\C=C\C(=O)N3CCN(CC3)C(C)=O)C=C2)[N+]([O-])=O)C=CC=C1,-2.7,453.564,4.5733,125.6184,32,5,0,8,6,168,2,1,1,3,83.7599999999999,True
C-2513,"5-(4-acetylaminobenzenesulfonamido)-1,3,4-thiadiazole-2-sulfonamide",CC(=O)NC1=CC=C(C=C1)[S](=O)(=O)NC2=NN=C(S2)[S](N)(=O)=O,-1.62,377.429,-0.0552999999999999,82.8364,23,8,3,13,5,124,2,0,0,2,161.209999999999,True
C-2515,2-chloro-4-[(4'-acetylpiperazin-1'-yl)carbonyl)ethenyl]phenyl  indol-5''-yl  sulfide,CC(=O)N1CCN(CC1)C(=O)/C=C/C2=CC(=C(SC3=CC4=C([NH]C=C4)C=C3)C=C2)Cl,-2.74,439.968,4.6764,121.7417,30,3,1,7,4,154,3,1,1,4,56.41,True
C-2517,nicosulfuron,COC1=NC(=NC(=C1)OC)NC(=O)N[S](=O)(=O)C2=NC=CC=C2C(=O)N(C)C,-3.97,410.412,0.101,96.7307,28,9,2,13,6,150,2,0,0,2,152.709999999999,True
C-2521,diltiazem,COC1=CC=C(C=C1)C2SC3=CC=CC=C3N(CCN(C)C)C(=O)C2OC(C)=O,-2.95,414.527,3.3685,114.495,29,6,0,7,6,154,2,0,1,3,59.08,True
C-2527,tenoxicam,CN1C(=C(O)C2=C(C=CS2)[S]1(=O)=O)C(=O)NC3=NC=CC=C3,-3.88,337.381999999999,1.6425,81.6833,22,6,2,9,2,114,2,0,1,3,99.6,True
C-2528,"n1-(2-sulfamoyl-1,3,4-thiadiazol-5-yl)-n4-(glycyl)sulfanilamide",NCC(=O)NC1=CC=C(C=C1)[S](=O)(=O)NC2=NN=C(S2)[S](N)(=O)=O,-1.19,392.444,-1.11649999999999,86.2168,24,9,4,14,6,130,2,0,0,2,187.23,True
C-2534,"2-sulfamoyl-4-methyl-5-(4-acetamidobenzenesulfonylimido)-1,3,4-thiadiazoline; 5-(4-acetylaminobenzenesulfonylimido)-4-methyl-delta2-1,3,4-thiadiazoline-2-sulfonamide",CN1N=C(SC1=N[S](=O)(=O)C2=CC=C(NC(C)=O)C=C2)[S](N)(=O)=O,-1.69,391.456,-0.622999999999998,85.9527,24,8,2,13,4,130,2,0,0,2,153.579999999999,True
C-2537,valsartan,CCCCC(=O)N(CC1=CC=C(C=C1)C2=C(C=CC=C2)C3=NN=N[NH]3)C(C(C)C)C(O)=O,-4.2,435.528,4.1617,121.3865,32,5,2,8,10,168,3,0,0,3,112.07,True
C-2544,cefazolin,CC1=NN=C(SCC2=C(N3C(SC2)C(NC(=O)C[N]4C=NN=N4)C3=O)C(O)=O)S1,-2.62,454.519,-0.636079999999999,102.8715,29,12,2,15,7,152,2,1,2,4,156.089999999999,True
C-2545,phenyl-kni-727,CC(C)(C)NC(=O)C1N(CSC1(C)C)C(=O)C(O)C(CC2=CC=CC=C2)NC(=O)C3=CC=CC=C3,-3.62,497.661,2.9834,138.915699999999,35,5,3,8,7,188,2,1,1,3,98.74,True
C-2547,cefamandole,C[N]1N=NN=C1SCC2=C(N3C(SC2)C(NC(=O)C(O)C4=CC=CC=C4)C3=O)C(O)=O,-0.14,462.513,-0.2256,110.6083,31,10,3,13,7,162,2,1,2,4,150.54,True
C-2550,benzyl-kni-727,CC(C)(C)NC(=O)C1N(CSC1(C)C)C(=O)C(O)C(CC2=CC=CC=C2)NC(=O)CC3=CC=CC=C3,-3.72,511.688,2.9123,143.296199999999,36,5,3,8,8,194,2,1,1,3,98.74,True
C-2552,4-tolyl-kni-727,CC1=CC=C(C=C1)C(=O)NC(CC2=CC=CC=C2)C(O)C(=O)N3CSC(C)(C)C3C(=O)NC(C)(C)C,-4.11,511.688,3.29182,143.652699999999,36,5,3,8,7,194,2,1,1,3,98.74,True
C-2553,folic  acid,NC1=NC(=O)C2=C(N1)N=CC(=N2)CNC3=CC=C(C=C3)C(=O)NC(CCC(O)=O)C(O)=O,-5.44,441.404,-0.0448000000000007,111.8946,32,9,6,13,9,166,3,0,0,3,213.279999999999,True
C-2558,"2,6-demethyl-kni-727",CC(C)(C)NC(=O)C1N(CSC1(C)C)C(=O)C(O)C(CC2=CC=CC=C2)NC(=O)COC3=CC=CC=C3,-3.83,527.687,2.7486,145.087199999999,37,6,3,9,9,200,2,1,1,3,107.97,True
C-2560,4-chlorophenyl-kni-727,CC(C)(C)NC(=O)C1N(CSC1(C)C)C(=O)C(O)C(CC2=CC=CC=C2)NC(=O)C3=CC=C(Cl)C=C3,-4.28,532.106,3.6368,143.925699999999,36,5,3,9,7,194,2,1,1,3,98.74,True
C-2562,4-methoxyphenylkni-727,COC1=CC=C(C=C1)C(=O)NC(CC2=CC=CC=C2)C(O)C(=O)N3CSC(C)(C)C3C(=O)NC(C)(C)C,-4.11,527.687,2.992,145.467699999999,37,6,3,9,8,200,2,1,1,3,107.97,True
C-2563,"2-(n4-glycylglycylsulfanilamido)-1,3,4-thiadiazole-5-sulfonamide",NCC(=O)NCC(=O)NC1=CC=C(C=C1)[S](=O)(=O)NC2=NN=C(S2)[S](N)(=O)=O,-1.29,449.496,-2.00029999999999,99.2265,28,10,5,16,8,152,2,0,0,2,216.329999999999,True
C-2565,kni-727,CC1=C(OCC(=O)NC(CC2=CC=CC=C2)C(O)C(=O)N3CSC(C)(C)C3C(=O)NC(C)(C)C)C(=CC=C1)C,-5.01,555.741,3.36544,154.561199999999,39,6,3,9,9,212,2,1,1,3,107.97,True
C-2567,4-nitrophenyl-kni-727,CC(C)(C)NC(=O)C1N(CSC1(C)C)C(=O)C(O)C(CC2=CC=CC=C2)NC(=O)C3=CC=C(C=C3)[N+]([O-])=O,-3.98,542.658,2.8916,145.570099999999,38,7,3,11,8,204,2,1,1,3,141.88,True
C-2571,chlorfluazuron;  atabron,FC1=CC=CC(=C1C(=O)NC(=O)NC2=CC(=C(OC3=C(Cl)C=C(C=N3)C(F)(F)F)C(=C2)Cl)Cl)F,-8.65,540.659,7.093,113.6279,34,4,2,14,4,178,3,0,0,3,80.32,True
C-2576,lasinavir,COCCNC(=O)C(NC(=O)C(CC(O)C(CC1=CC=CC=C1)NC(=O)OC(C)(C)C)CC2=CC(=C(OC)C(=C2)OC)OC)C(C)C,-4.0,659.821,3.6615,178.873899999999,47,9,4,12,18,262,2,0,0,2,153.68,True
C-2580,dihydroergocristine,CC(C)C1(NC(=O)C2CC3C(CC4=C[NH]C5=C4C3=CC=C5)N(C)C2)OC6(O)C7CCCN7C(=O)C(CC8=CC=CC=C8)N6C1=O,-5.27,611.743,2.7172,166.530199999999,45,6,3,10,5,236,3,4,5,8,118.21,True
C-2584,boc-phe-is-sta-leu-nh(ch2)3n(ch2ch2oh)2 (analog 22),CC(C)CC(NC(=O)C(CC1=C[NH]C=N1)NC(=O)C(CC2=CC=CC=C2)NC(=O)OC(C)(C)C)C(O)CC(=O)NC(CC(C)C)C(=O)NCCCN(CCO)CCO,-2.37,817.041999999999,1.1787,219.159599999999,58,11,9,17,26,326,2,0,0,2,247.339999999999,True
C-2585,"boc-phe-his-sta-leu-nh-ch2ch2-ch(nh2)-cooh, analog 16)",CC(C)CC(NC(=O)C(CC1=C[NH]C=N1)NC(=O)C(CC2=CC=CC=C2)NC(=O)OC(C)(C)C)C(O)CC(=O)NC(CC(C)C)C(=O)NCCC(N)C(O)=O,-2.22,772.944999999999,1.304,204.159199999999,55,10,9,17,22,306,2,0,0,2,266.96,True
C-2586,kni-272;  kynostatin,CSCC(NC(=O)COC1=CC=CC2=C1C=CN=C2)C(=O)NC(CC3=CC=CC=C3)C(O)C(=O)N4CSCC4C(=O)NC(C)(C)C,-3.95,667.854,2.36599999999999,181.488899999999,46,9,4,13,13,246,3,1,1,4,149.96,True
C-2588,boc-phe-his-sta-leu-nhch2-4-pyridyl (analog 5),CC(C)CC(NC(=O)C(CC1=C[NH]C=N1)NC(=O)C(CC2=CC=CC=C2)NC(=O)OC(C)(C)C)C(O)CC(=O)NC(CC(C)C)C(=O)NCC3=CC=NC=C3,-3.36,762.952999999999,3.0972,207.004999999999,55,9,7,15,20,300,3,0,0,3,216.529999999999,True
C-2589,boc-phe-his-sta-leu-nh2-2-pyridyl (analog 4),CC(C)CC(NC(=O)C(CC1=C[NH]C=N1)NC(=O)C(CC2=CC=CC=C2)NC(=O)OC(C)(C)C)C(O)CC(=O)NC(CC(C)C)C(=O)NCC3=CC=CC=N3,-3.42,762.952999999999,3.0972,207.004999999999,55,9,7,15,20,300,3,0,0,3,216.529999999999,True
C-2590,boc-phe-his-sta-leu-nh-ch2-4-pyridyl-n-oxide;  (analog 7),CC(C)CC(NC(=O)C(CC1=C[NH]C=N1)NC(=O)C(CC2=CC=CC=C2)NC(=O)OC(C)(C)C)C(O)CC(=O)NC(CC(C)C)C(=O)NCC3=CC=[N+]([O-])C=C3,-2.38,778.951999999999,2.3356,208.169999999999,56,9,7,16,20,306,3,0,0,3,230.579999999999,True
C-2591,"boc-phe-his-sta-leu-nhch2-ph--3-ch2nh2, analog 11",CC(C)CC(NC(=O)C(CC1=C[NH]C=N1)NC(=O)C(CC2=CC=CC=C2)NC(=O)OC(C)(C)C)C(O)CC(=O)NC(CC(C)C)C(=O)NCC3=CC=CC(=C3)CN,-2.85,791.006999999999,3.1609,217.101399999999,57,9,8,15,21,312,3,0,0,3,229.66,True
C-2592,boc-phe-his-sta-leu-nh-ch2-ch(nh2)-2-pyridyl;  (analog 8),CC(C)CC(NC(=O)C(CC1=C[NH]C=N1)NC(=O)C(CC2=CC=CC=C2)NC(=O)OC(C)(C)C)C(O)CC(=O)NC(CC(C)C)C(=O)NCC(N)C3=CC=CC=N3,-3.4,791.994999999999,2.597,215.096399999999,57,10,8,16,21,312,3,0,0,3,242.55,True
C-2593,iodipamide;  adipiodone,OC(=O)C1=C(I)C(=C(I)C=C1I)NC(=O)CCCCC(=O)NC2=C(I)C=C(I)C(=C2I)C(O)=O,-3.39,1139.76399999999,6.8482,178.831999999999,34,4,4,14,9,182,2,0,0,2,132.8,True
C-2594,boc-phe-his-achpa-leu-nh-ch2-ph-3-ch2-nh2 (analog 12),CC(C)CC(NC(=O)CC(O)C(CC1CCCCC1)NC(=O)C(CC2=C[NH]C=N2)NC(=O)C(CC3=CC=CC=C3)NC(=O)OC(C)(C)C)C(=O)NCC4=CC=CC(=C4)CN,-4.7,831.071999999999,4.0852,228.838399999999,60,9,8,15,21,328,3,1,1,4,229.66,True
C-2595,"boc-phe-his-sta-leu-nh-chph-cooh, analog 18",CC(C)CC(NC(=O)C(CC1=C[NH]C=N1)NC(=O)C(CC2=CC=CC=C2)NC(=O)OC(C)(C)C)C(O)CC(=O)NC(CC(C)C)C(=O)NC(C(O)=O)C3=CC=CC=C3,-3.13,805.974,3.3279,215.882799999999,58,9,8,16,21,316,3,0,0,3,240.939999999999,True
C-2596,"l-365,209, analog 2;  (cyclic hexapeptide)",CCC(C)C1NC(=O)C(CC2=CC=CC=C2)NC(=O)C3CCCN3C(=O)C(CC4=CC=CC=C4)N(C)C(=O)C5CCCCN5C(=O)C6CCCCN6C1=O,-5.57,740.945999999999,3.0813,203.605399999999,54,6,2,12,6,290,2,4,4,6,139.44,True
C-2597,"boc-phe-his-sta-leu-nhch(cooh)ch2-c6h4-3-nh2,  tetrapeptide derivative (15)",CC(C)CC(NC(=O)C(CC1=C[NH]C=N1)NC(=O)C(CC2=CC=CC=C2)NC(=O)OC(C)(C)C)C(O)CC(=O)NC(CC(C)C)C(=O)NC(CC3=CC(=CC=C3)CN)C(O)=O,-2.82,849.042999999999,2.6566,228.525199999999,61,10,9,17,23,334,3,0,0,3,266.96,True
C-2598,"l-365,209, analog 10;  (cyclic hexapeptide)",CCC(C)C1NC(=O)C(CC2=C[NH]C3=C2C=CC=C3)NC(=O)C4CCCN4C(=O)C(CC5=C[NH]C=N5)NC(=O)C6CCCCN6C(=O)C7CCCCN7C1=O,-2.58,755.920999999999,1.9435,202.980499999999,55,7,5,15,6,294,3,4,4,7,192.7,True
C-2599,"l-365,209  (analog 6 );  (cyclic hexapeptide)",CCC(C)C1NC(=O)C(CC2=CC=CC=C2)NC(=O)C3CCCN3C(=O)C(CC4=CC=CC=C4)N(C)C(=O)C(CCCN)NC(=O)C5CCC=NN5C1=O,-2.7,742.921999999999,1.5196,203.480499999999,54,8,4,14,9,290,2,2,3,5,186.609999999999,True
C-2600,"l-365,209 -analog 11;  (cyclic hexapeptide)",CCC(C)C1NC(=O)C(CC2=CC3=C(C=CC=C3)C=C2)NC(=O)C4CCCN4C(=O)C(CC5=C[NH]C=N5)NC(=O)C6CCCCN6C(=O)C7CCCCN7C1=O,-3.98,766.943999999999,2.6154,208.629799999999,56,7,4,14,6,298,3,4,4,7,176.91,True
C-2601,"l -365, 209,   analog 9 ;  (cyclic  hexapeptide)",CCC(C)C1NC(=O)C(CC2=C[NH]C3=C2C=CC=C3)NC(=O)C4CCCN4C(=O)C(CC5=CC=CC=C5)N(C)C(=O)C6CNCCN6C(=O)C7CCCCN7C1=O,-2.75,780.970999999999,1.9819,214.480799999999,57,7,4,14,6,304,3,4,4,7,167.26,True
C-2602,"l-365,209 -analog 12,  (cyclic hexapeptide)",CCC(C)C1NC(=O)C(CC2=C[NH]C3=C2C=CC=C3)NC(=O)C4CCCN4C(=O)C(CC5=C[NH]C=N5)NC(=O)C6CCCCN6C(=O)C7CCC=NN7C1=O,-2.6,754.892999999999,1.5392,201.988499999999,55,8,5,16,6,292,3,3,4,7,205.06,True
C-2603,"l-365,209 ;  (cyclic  hexapeptide)",CCC(C)C1NC(=O)C(CC2=CC=CC=C2)NC(=O)C3CCCN3C(=O)C(CC4=CC=CC=C4)N(C)C(=O)C5CCC=NN5C(=O)C6CCC=NN6C1=O,-4.04,738.889999999999,2.2727,201.621399999999,54,8,2,14,6,286,2,2,4,6,164.159999999999,True
D-950,1-lauryl-2-pyrrolodone,CCCCCCCCCCCCN1CCCC1=O,-4.67,253.429999999999,4.5297,77.658,18,1,0,2,11,106,0,1,1,1,20.31,True
D-951,1-lauryl-4-carboxy-2-pyrrolodone,CCCCCCCCCCCCN1CC(CC1=O)C(O)=O,-3.223,297.438999999999,3.8404,84.1668,21,2,1,4,12,122,0,1,1,1,57.61,True
D-952,1-methyl-4-carboxy-2-pyrrolodone,CN1CC(CC1=O)C(O)=O,-0.954,143.142,-0.450699999999999,33.3797999999999,10,2,1,4,1,56,0,1,1,1,57.61,True
D-954,1-methyl-4-methoxycarbonyl,COC(=O)C1CN(C)C(=O)C1,0.804,157.168999999999,-0.3623,37.76,11,3,0,4,1,62,0,1,1,1,46.61,True
D-956,1-hexyl-4-methoxycarbonyl-,CCCCCCN1CC(CC1=O)C(=O)OC,-1.246,227.303999999999,1.5882,60.845,16,3,0,4,6,92,0,1,1,1,46.61,True
D-1074,benznidazole,[O-][N+](=O)c1nccn1CC(=O)NCc2ccccc2,-2.813,260.253,1.10769999999999,67.1701,19,5,1,7,5,98,2,0,0,2,90.06,True
D-1445,piperine,O=C(/C=C/C=C/c1ccc2OCOc2c1)N3CCCCC3,-3.853,285.343,2.9972,81.17,21,3,0,4,3,110,1,1,2,3,38.77,True
D-1720,"glycine, n-acetyl-",CC(=O)NCC(O)=O,-0.649,117.103999999999,-0.7929,26.3194999999999,8,2,2,4,2,46,0,0,0,0,66.4,True
D-1793,n-benzoylbenzamide,O=C(NC(=O)c1ccccc1)c2ccccc2,-2.273,225.247,2.2568,64.6807,17,2,1,3,2,84,2,0,0,2,46.17,True
D-1920,4'-((6-hydroxy-m-tolyl)azo)acetanilide,CC(=O)Nc1ccc(N\N=C\2C=C(C)C=CC2=O)cc1,-5.358,269.304,2.4981,79.7074,20,4,2,5,3,102,1,0,1,2,70.56,True
D-1980,tetramethrin,CC(C)=C[C@@H]1[C@@H](C(=O)OCN2C(=O)C3=C(CCCC3)C2=O)C1(C)C,-4.858,331.412,2.9649,88.498,24,4,0,5,4,130,0,1,3,3,63.68,True
D-2025,butachlor,CCCCOCN(C(=O)CCl)c1c(CC)cccc1CC,-4.193,311.853,4.1574,89.131,21,2,0,4,9,118,1,0,0,1,29.54,True
D-2087,"d-alaninic acid,",CC(C)OC(=O)[C@H](C)N(C(=O)c1ccccc1)c2ccc(F)c(Cl)c2,-4.561,363.816,4.466,95.3515,25,3,0,6,5,132,2,0,0,2,46.61,True
E-496,strychnine,O=C(N(c(c(C1(C(N(C2)CC(C3C4C5OC6)=C6)C3)C2)ccc7)c7)C14)C5,-3.32,334.419,2.0925,93.409,25,3,0,4,0,128,1,4,6,7,32.78,True
E-521,phenallymal,c1ccccc1C2(CC=C)C(=O)NC(=O)NC2=O,-2.18,244.249999999999,0.866499999999999,64.6154,18,3,2,5,3,92,1,1,1,2,75.27,True
E-597,acetanilide,O=C(Nc(cccc1)c1)C,-1.33,135.165999999999,1.645,40.7457,10,1,1,2,1,52,1,0,0,1,29.1,True
E-655,prometryn,COP(=S)(OC)SCN2C(=O)c1ccccc1C2=O,-4.1,317.328,2.4906,77.703,19,6,0,8,5,102,1,0,1,2,55.84,True
E-673,4-aminoacetanilide,O=C(Nc(ccc(N)c1)c1)C,-0.98,150.180999999999,1.2272,45.1581,11,2,2,3,1,58,1,0,0,1,55.12,True
E-674,4-bromoacetanilide,O=C(Nc(ccc(c1)Br)c1)C,-3.08,214.061999999999,2.4075,48.4457,11,1,1,3,1,58,1,0,0,1,29.1,True
E-675,4-fluoroacetanilide,O=C(Nc(ccc(c1)F)c1)C,-1.78,153.155999999999,1.7841,40.7037,11,1,1,3,1,58,1,0,0,1,29.1,True
E-677,4-iodoacetanilide,O=C(Nc(ccc(c1)I)c1)C,-3.25,261.062,2.2496,53.4627,11,1,1,3,1,58,1,0,0,1,29.1,True
E-678,4-methoxyacetanilide,O=C(Nc(ccc(c1)OC)c1)C,-1.3,165.191999999999,1.6536,47.2977,12,2,1,3,2,64,1,0,0,1,38.33,True
E-680,dibucaine,CCCCOc2cc(C(=O)NCCN(CC)CC)c1ccccc1n2,-3.7,343.471,3.4853,102.2672,25,4,1,5,10,136,2,0,0,2,54.46,True
E-697,tetracycline,CN(C)C2C1CC4C(=C(O)C1(O)C(=O)C(=C2O)C(N)=O)C(=O)c3c(O)cccc3C4(C)O,-3.12,444.44,-0.214399999999999,109.5409,32,9,6,10,2,170,1,0,3,4,181.619999999999,True
E-700,diphenamid,CN(C)C(=O)C(c1ccccc1)c2ccccc2,-2.98,239.318,2.9067,73.421,18,1,0,2,3,92,2,0,0,2,20.31,True
E-727,nimetazepam,c1c(N(=O)(=O))cc2C(c3ccccc3)=NCC(=O)N(C)c2c1,-3.8,295.298,2.4086,83.4544,22,4,0,6,2,110,2,0,1,3,75.8099999999999,True
E-737,Parabanic_Acid,O=C(NC(=O)C1=O)N1,-0.4,114.059999999999,-1.6476,21.6814,8,3,2,5,0,42,0,1,1,1,75.27,True
E-740,1-Acetylurea,O=C(NC(=O)C)N,-0.9,102.093,-0.7988,23.4001,7,2,2,4,0,40,0,0,0,0,72.19,True
E-742,Alloxan,O=C(NC(=O)C(=O)C1=O)N1,-1.25,142.07,-2.0785,26.6884,10,4,2,6,0,52,0,1,1,1,92.34,True
E-760,5-Ethylhydantoin,CCC1NC(=O)NC1(=O),-0.06,128.131,-0.3956,30.7533999999999,9,2,2,4,1,50,0,1,1,1,58.2,True
E-793,Salicylamide,O=C(N)c(c(O)ccc1)c1,-1.76,137.137999999999,0.4911,36.6247,10,2,2,3,1,52,1,0,0,1,63.32,True
E-907,Carbetamide,CCNC(=O)C(C)OC(=O)Nc1ccccc1,-1.83,236.271,1.75969999999999,64.6914,17,3,2,5,4,92,1,0,0,1,67.4299999999999,True
E-918,Acetyl_Sulfisoxazole,c1cc(N)ccc1S(=O)(=O)N(C(=O)C)c2onc(C)c2C,-3.59,309.347,1.61544,77.1772,21,6,1,8,3,112,2,0,0,2,106.5,True
E-970,Piperine,O=C(N(CCCC1)C1)C=CC=Cc(ccc(OCO2)c23)c3,-3.46,285.343,2.9972,81.17,21,3,0,4,3,110,1,1,2,3,38.77,True
E-1000,Demeclocycline,c1cc(O)c2C(=O)C3=C(O)C4(O)C(=O)C(C(=O)N)=C(O)C(N(C)C)C4CC3C(O)c2c1Cl,-2.52,464.858,0.2649,109.9399,32,9,6,11,2,170,1,0,3,4,181.62,True
E-1006,Chlortetracycline,O=C(N)C(=C(O)C(N(C)C)C(C1(O)C(O)=C(C2C(O)(c(c3c(O)cc4)c4Cl)C)C3=O)C2)C1=O,-2.88,478.885,0.439000000000001,114.5509,33,9,6,11,2,176,1,0,3,4,181.62,True
E-1008,Doxycycline,CC3C2C(O)C1C(N(C)C)C(=C(C(N)=O)C(=O)C1(O)C(=C2C(=O)c4c(O)cccc34)O)O,-2.87,444.44,-0.347599999999998,109.7749,32,9,6,10,2,170,1,0,3,4,181.619999999999,True
E-1015,Glycocholic_Acid,O=C(NCC(=O)O)CCC(C(C(C(C(C(C(C(C1)CC(O)C2)(C2)C)C3)C1O)C4)(C3O)C)C4)C,-5.15,465.631,2.56489999999999,123.0469,33,5,5,7,6,188,0,4,4,4,127.09,True
E-1159,cycloheximide,CC1CC(C)C(=O)C(C1)C(O)CC2CC(=O)NC(=O)C2,-1.13,281.352,1.04149999999999,72.5565,20,4,2,5,3,112,0,2,2,2,83.47,True
E-1187,4-chloroacetanilide,O=C(Nc(ccc(c1)Cl)c1)C,-2.84,169.610999999999,2.2984,45.7557,11,1,1,3,1,58,1,0,0,1,29.1,True
E-1188,4-nitroacetanilide,O=C(Nc(ccc(c1)N(=O)=O)c1)C,-2.69,180.162999999999,1.5532,47.4001,13,3,1,5,2,68,1,0,0,1,72.24,True
E-1205,L-Asparagine,O=C(O)C(N)CC(=O)N,-0.74,132.119,-1.72629999999999,29.4226,9,3,3,5,3,52,0,0,0,0,106.409999999999,True