ID,Name,SMILES,LogS,MolWt,MolLogP,MolMR,HeavyAtomCount,NumHAcceptors,NumHDonors,NumHeteroatoms,NumRotatableBonds,NumValenceElectrons,NumAromaticRings,NumSaturatedRings,NumAliphaticRings,RingCount,TPSA,IsAmide
A-6105,"1,1'-[iminobis(ethyleneiminoethylene)]bis[3-(octadecenyl)pyrrolidine-2,5-dione]",CCCCCCCCCCCCCCCCCCC1CC(=O)N(CCNCCNCCNCCN2C(=O)CC(CCCCCCCCCCCCCCCCCC)C2=O)C1=O,-10.2347171749,858.394999999999,11.8085999999999,256.589099999998,61,7,3,9,46,356,0,2,2,2,110.85,True
B-9,thalidomide,O=C1CCC(N2C(=O)c3ccccc3C2=O)C(=O)N1,-2.6758,258.232999999999,0.0877999999999999,63.1137,19,4,1,6,1,96,1,1,2,3,83.55,True
B-14,niclosamide,Oc1ccc(Cl)cc1C(=O)Nc2ccc(cc2Cl)[N+]([O-])=O,-5.3106,327.123,3.8595,79.1764,21,4,2,8,3,108,2,0,0,2,92.47,True
B-80,nikethamide,CCN(CC)C(=O)c1cccnc1,0.749,178.235,1.5636,51.4885,13,2,0,3,3,70,1,0,0,1,33.2,True
B-97,acetamide,CC(N)=O,1.5808,59.068,-0.5084,14.8684,4,1,1,2,0,24,0,0,0,0,43.09,True
B-121,colchicine,COC1=CC=C2C(=CC1=O)[C@H](CCc3cc(OC)c(OC)c(OC)c23)NC(C)=O,-0.9482,399.443,2.8716,109.2347,29,6,1,7,5,154,2,0,1,3,83.09,True
B-128,nihydrazone,CC(=O)N/N=C/c1oc(cc1)[N+]([O-])=O,-2.5958,197.15,0.657799999999999,46.7731,14,5,1,7,3,74,1,0,0,1,97.74,True
B-145,deferoxamine,CC(=O)N(O)CCCCCNC(=O)CCC(=O)N(O)CCCCCNC(=O)CCC(=O)N(O)CCCCCN,-1.6695,560.693,0.922100000000004,141.267299999999,39,9,6,14,23,226,0,0,0,0,205.84,True
B-160,quinethazone,CCC1NC(=O)c2cc(c(Cl)cc2N1)[S](N)(=O)=O,-3.2859,289.744,0.8788,67.9931,18,4,3,8,2,98,1,0,1,2,101.289999999999,True
B-206,alloxantin,OC1(C(=O)NC(=O)NC1=O)C2(O)C(=O)NC(=O)NC2=O,-1.9942,286.156,-4.81939999999999,53.2624,20,8,6,12,1,106,0,2,2,2,191.0,True
B-215,"barbituric acid,5-me-5-phenyl-",CC1(C(=O)NC(=O)NC1=O)c2ccccc2,-2.4581,218.212,0.310299999999999,55.4754,16,3,2,5,1,82,1,1,1,2,75.27,True
B-217,butalbital,CC(C)CC1(CC=C)C(=O)NC(=O)NC1=O,-2.1193,224.26,0.960999999999999,58.3834,16,3,2,5,4,88,0,1,1,1,75.27,True
B-218,chlorthalidone,N[S](=O)(=O)c1cc(ccc1Cl)C2(O)NC(=O)c3ccccc23,-3.4507,338.772,0.9242,79.7322,22,4,3,8,2,114,2,0,1,3,109.49,True
B-259,d-pantothenic acid,CC(C)(CO)C(O)C(=O)NCCC(O)=O,0.6591,219.236999999999,-1.04329999999999,52.1361,15,4,4,6,6,88,0,0,0,0,106.86,True
B-270,chlormezanone,CN1C(c2ccc(Cl)cc2)[S](=O)(=O)CCC1=O,-2.0394,273.741,1.6155,65.3668,17,3,0,6,1,92,1,1,1,2,54.45,True
B-303,3'-methylphthalanilic acid,Cc1cccc(NC(=O)c2ccccc2C(O)=O)c1,-2.407,255.273,2.94552,72.5335,19,2,2,4,3,96,2,0,0,2,66.4,True
B-313,n-acetyl-dl-tryptophan,CC(=O)N[C@@H](Cc1c[nH]c2ccccc12)C([O-])=O,-2.3122,245.257999999999,-0.0350000000000003,64.6144,18,3,2,5,4,94,2,0,0,2,85.02,True
B-331,"1,2-benzenedicarboxamide",NC(=O)c1ccccc1C(N)=O,-2.4371,164.163999999999,-0.115599999999999,43.4778,12,2,2,4,2,62,1,0,0,1,86.18,True
B-368,"2-chloro-n,n-diallylacetamide",ClCC(=O)N(CC=C)CC=C,-0.9452,173.642999999999,1.4258,47.694,11,1,0,3,5,62,0,0,0,0,20.31,True
B-401,"l-valine, n-acetyl-",CC(C)[C@H](NC(C)=O)C(O)=O,-0.3599,159.184999999999,0.231699999999999,40.0785,11,2,2,4,3,64,0,0,0,0,66.4,True
B-468,4-methylacetanilide,CC(=O)Nc1ccc(C)cc1,-2.0946,149.192999999999,1.95342,45.4827,11,1,1,2,1,58,1,0,0,1,29.1,True
B-470,thiacetazone,CC(=O)Nc1ccc(cc1)/C=N/NC(N)=S,-3.429,236.3,0.812099999999999,68.2608,16,3,3,6,3,84,1,0,0,1,79.51,True
B-501,"2,5-piperazinedione",O=C1CNC(=O)CN1,-0.8312,114.104,-1.76759999999999,26.0193999999999,8,2,2,4,0,44,0,1,1,1,58.2,True
B-538,"acetamide, 2-cyano-",NC(=O)CC#N,0.1893,84.078,-0.61462,19.4244,6,2,1,3,1,32,0,0,0,0,66.88,True
B-670,ethoate methyl,CCNC(=O)CS[P](=S)(OC)OC,-1.4567,243.289999999999,1.373,59.4447,13,5,1,7,6,78,0,0,0,0,47.56,True
B-675,"1-(hydroxymethyl)-5,5-dimethylhydantoin",CC1(C)N(CO)C(=O)NC1=O,0.8009,158.156999999999,-0.7334,36.5425,11,3,2,5,1,62,0,1,1,1,69.64,True
B-687,"1,3-dichloro-5,5-dimethylhydantoin",CC1(C)N(Cl)C(=O)N(Cl)C1=O,-2.5955,197.021,1.3368,39.866,11,2,0,6,0,62,0,1,1,1,40.62,True
B-755,oxanamide,CCCC1OC1(CC)C(N)=O,-1.1745,157.212999999999,0.819399999999999,41.9974,11,2,1,3,4,64,0,1,1,1,55.62,True
B-759,trimethadione,CN1C(=O)OC(C)(C)C1=O,-0.4568,143.142,0.373599999999999,33.3299999999999,10,3,0,4,0,56,0,1,1,1,46.61,True
B-760,"benzamide, n- (4-aminophenyl)sulfonyl -",Nc1ccc(cc1)[S](=O)(=O)NC(=O)c2ccccc2,-2.9501,276.317,1.3875,71.9484,19,4,2,6,3,98,2,0,0,2,89.2599999999999,True
B-763,"2,5-pyrrolidinedione, 1-bromo-",BrN1C(=O)CCC1=O,-1.0831,177.984999999999,0.4453,30.0139999999999,8,2,0,4,0,44,0,1,1,1,37.38,True
B-764,"1-chloro-2,5-pyrrolidinedione",ClN1C(=O)CCC1=O,-0.9702,133.534,0.2892,26.9399999999999,8,2,0,4,0,44,0,1,1,1,37.38,True
B-774,npa (naptalam),OC(=O)c1ccccc1C(=O)Nc2cccc3ccccc23,-3.1633,291.306,3.7903,85.3025,22,2,2,4,3,108,3,0,0,3,66.3999999999999,True
B-776,captan,ClC(Cl)(Cl)SN1C(=O)C2CC=CCC2C1=O,-4.7704,300.594,2.9135,65.088,16,3,0,7,1,88,0,1,2,2,37.38,True
B-777,folpet,ClC(Cl)(Cl)SN1C(=O)c2ccccc2C1=O,-5.569,296.562,3.2585,64.823,16,3,0,7,1,84,1,0,1,2,37.38,True
B-816,dicrotophos,CO[P](=O)(OC)OC(/C)=C/C(=O)N(C)C,0.6249,237.191999999999,1.3959,55.1605,15,5,0,7,5,88,0,0,0,0,65.07,True
B-820,"4-thiazolidinone, 2-thioxo-",O=C1CSC(=S)N1,-1.7723,133.197,0.1343,33.1986999999999,7,3,1,4,0,38,0,1,1,1,29.1,True
B-823,"acetamide, n-(2-hydroxyethyl)-",CC(=O)NCCO,0.9867,103.121,-0.8852,25.7694999999999,7,2,2,3,2,42,0,0,0,0,49.33,True
B-834,butabarbital sodium,[Na+].CCC(C)C1(CC)C(=O)NC(=O)[N-]C1=O,0.1528,234.231,-1.41699999999999,54.0837,16,3,1,6,3,84,0,1,1,1,77.34,True
B-845,"benzamide, 2-methyl-3,5-dinitro-",Cc1c(cc(cc1[N+]([O-])=O)[N+]([O-])=O)C(N)=O,-2.3525,225.159999999999,0.91032,53.0057,16,5,1,8,3,84,1,0,0,1,129.37,True
B-884,phosphamidon,CCN(CC)C(=O)/C(Cl)=C(/C)O[P](=O)(OC)OC,0.5233,299.691,2.7426,69.1905,18,5,0,8,7,106,0,0,0,0,65.07,True
B-911,"acetamide, n-(4-fluoro-2-methylphenyl)-",CC(=O)Nc1ccc(F)cc1C,-1.3593,167.183,2.09251999999999,45.4407,12,1,1,3,1,64,1,0,0,1,29.1,True
B-912,"acetamide, n-(2-fluoro-4-methylphenyl)-",CC(=O)Nc1ccc(C)cc1F,-1.7403,167.182999999999,2.09251999999999,45.4407,12,1,1,3,1,64,1,0,0,1,29.1,True
B-944,iodamide,CC(=O)NCc1c(I)c(NC(C)=O)c(I)c(C(O)=O)c1I,-2.3208,627.942,2.7931,103.3767,21,3,3,9,4,114,1,0,0,1,95.5,True
B-960,aspidospermine,CC[C@@]12CCCN3CC[C@@]4([C@@H](CC1)N(C(C)=O)c5c(OC)cccc45)[C@@H]23,-1.3269,354.494,3.7264,102.79,26,3,0,4,2,140,1,3,4,5,32.78,True
B-972,glycocholic acid,C[C@H](CCC(=O)NCC(O)=O)[C@H]1CC[C@H]2[C@@H]3[C@H](O)C[C@@H]4C[C@H](O)CC[C@]4(C)[C@H]3C[C@H](O)[C@]12C,-5.1495,465.631,2.56489999999999,123.0469,33,5,5,7,6,188,0,4,4,4,127.09,True
B-983,"2,4,6(1h,3h,5h)-pyrimidinetrione, 5-nitro-",[O-][N+](=O)C1C(=O)NC(=O)NC1=O,-2.284,173.084,-2.0023,32.4637999999999,12,5,2,8,1,64,0,1,1,1,118.41,True
B-995,"1h-pyrrole-3-propanoic acid, 2,5-dihydro-4-methy",CC1=C(CCC(O)=O)C(=O)NC1=O,-0.6608,183.162999999999,-0.175899999999999,42.7195,13,3,2,5,3,70,0,0,1,1,83.47,True
B-1008,bayer 15080,O=Nc1ccc(NNC(=O)c2ccccc2)cc1,-4.6835,241.25,2.8414,69.4279,18,4,2,5,4,90,2,0,0,2,70.56,True
B-1009,salinazid,O=C(NN\C=C/1C=CC=CC1=O)c2ccncc2,-3.6835,241.25,0.895,66.2089,18,4,2,5,3,90,1,0,1,2,71.09,True
B-1020,"acetic acid, oxo(phenylamino)-",OC(=O)C(=O)Nc1ccccc1,-1.3019,165.148,0.709699999999999,42.7075,12,2,2,4,1,62,1,0,0,1,66.3999999999999,True
B-1021,n-benzyl-3-chloropropanamide,ClCCC(=O)NCc1ccccc1,-3.2959,197.665,1.9317,53.6257,13,1,1,3,4,70,1,0,0,1,29.1,True
B-1022,"2-butenoic acid, 4-[(aminocarbonyl)amino]-4-oxo-",NC(=O)NC(=O)C=CC(O)=O,-1.9202,158.112999999999,-1.1779,34.5019,11,3,3,6,2,60,0,0,0,0,109.49,True
B-1043,"2,4,6(1h,3h,5h)-pyrimidinetrione, 5-ethyl-5-(1-p",CCC1(N2CCCCC2)C(=O)NC(=O)NC1=O,-2.1562,239.275,-0.0129000000000002,60.1274,17,4,2,6,2,94,0,2,2,2,78.51,True
B-1067,dioxypyramidon,CN(C)C(=O)C(=O)N(N(C)C(C)=O)c1ccccc1,-0.5345,263.296999999999,0.501099999999999,71.066,19,3,0,6,1,102,1,0,0,1,60.93,True
B-1085,n-(aminocarbonyl)-2-(1-methylethyl)4-pentenamide,CC(C)C(CC=C)C(=O)NC(N)=O,-2.7469,184.238999999999,1.0296,50.8681,13,2,2,4,4,74,0,0,0,0,72.19,True
B-1097,isovaleryl diethylamide,CCN(CC)C(=O)CC(C)C,-0.5946,157.256999999999,1.90089999999999,47.383,11,1,0,2,4,66,0,0,0,0,20.31,True
B-1165,"3-pyridinecarboxylic acid, hydrazide",NNC(=O)c1cccnc1,-0.1372,137.142,-0.3149,35.8906,10,3,2,4,1,52,1,0,0,1,68.0099999999999,True
B-1173,maleanilic acid,OC(=O)\C=C/C(=O)Nc1ccccc1,-2.2815,191.186,1.26589999999999,51.8475,14,2,2,4,3,72,1,0,0,1,66.3999999999999,True
B-1280,"acetamide, 2,2,2-tribromo-",NC(=O)C(Br)(Br)Br,-1.2668,295.756,1.3102,38.7063999999999,7,1,1,5,0,42,0,0,0,0,43.09,True
B-1282,trichloroacetamide,NC(=O)C(Cl)(Cl)Cl,-1.0966,162.403,0.841899999999999,29.4844,7,1,1,5,0,42,0,0,0,0,43.09,True
B-1298,"acetamide, 2,2-dibromo-",NC(=O)C(Br)Br,-1.0574,216.859999999999,0.5876,30.8364,6,1,1,4,1,36,0,0,0,0,43.09,True
B-1346,pyrrolidone,O=C1CCCN1,1.07,85.106,-0.1036,22.2436999999999,6,1,1,2,0,34,0,1,1,1,29.1,True
B-1366,"acetamide, 2-cyano-n-phenyl-",O=C(CC#N)Nc1ccccc1,-2.7275,160.176,1.53877999999999,45.3017,12,2,1,3,2,60,1,0,0,1,52.89,True
B-1434,bilirubin,CC1=C(C=C)/C(NC1=O)=C/c2[nH]c(Cc3[nH]c(\C=C\4NC(=O)C(=C4C)C=C)c(C)c3CCC(O)=O)c(CCC(O)=O)c2C,-4.8127,584.673,4.53124,163.812399999999,43,4,6,10,12,224,2,0,2,4,164.38,True
B-1446,"1,3-diacetylurea",CC(=O)NC(=O)NC(C)=O,-0.3137,144.129999999999,-0.6214,33.0293999999999,10,3,2,5,0,56,0,0,0,0,75.27,True
B-1449,fluoroacetamide,NC(=O)CF,1.1132,77.0579999999999,-0.5588,15.1694,5,1,1,3,1,30,0,0,0,0,43.09,True
B-1450,glycochenodeoxycholic acid,C[C@H](CCC(=O)NCC(O)=O)[C@H]1CC[C@H]2[C@@H]3[C@H](O)C[C@@H]4C[C@H](O)CC[C@]4(C)[C@H]3CC[C@]12C,-5.1546,449.632,3.5941,121.6571,32,4,4,6,6,182,0,4,4,4,106.86,True
B-1464,"acetamide, 2,2-dichloro-",NC(=O)C(Cl)Cl,-0.2558,127.958,0.2754,24.6884,6,1,1,4,1,36,0,0,0,0,43.09,True
B-1509,"benzoic acid, 2-benzoylhydrazide",O=C(NNC(=O)c1ccccc1)c2ccccc2,-1.5883,240.262,1.76139999999999,67.8164,18,2,2,4,2,90,2,0,0,2,58.2,True
B-1524,"l-tyrosine, n-acetyl-, ethyl ester",CCOC(=O)[C@H](Cc1ccc(O)cc1)NC(C)=O,-1.8586,251.282,1.0025,66.0485,18,4,2,5,5,98,1,0,0,1,75.63,True
B-1527,lorazepam,OC1N=C(c2ccccc2Cl)c3cc(Cl)ccc3NC1=O,-3.6036,321.163,3.1013,83.1795,21,3,2,6,1,106,2,0,1,3,61.69,True
B-1529,kebuzone,CC(=O)CCC1C(=O)N(N(C1=O)c2ccccc2)c3ccccc3,-3.2676,322.364,2.9668,91.261,24,3,0,5,5,122,2,1,1,3,57.69,True
B-1533,"acetamide, n,n'-1,2-ethanediylbis-",CC(=O)NCCNC(C)=O,0.6755,144.173999999999,-0.7414,37.3674,10,2,2,4,3,58,0,0,0,0,58.2,True
B-1542,amidothion,COCCNC(=O)CS[P](=S)(OC)OC,-1.1356,273.316,0.9995,65.6467,15,6,1,8,8,90,0,0,0,0,56.79,True
B-1546,n-(hydroxymethyl)acrylamide,OCNC(=O)C=C,0.8101,101.104999999999,-0.7616,25.4254999999999,7,2,2,3,2,40,0,0,0,0,49.33,True
B-1547,"butanamide, n,n'-1,2-ethanediylbis-",CCCC(=O)NCCNC(=O)CCC,-0.6222,200.281999999999,0.818999999999999,55.8354,14,2,2,4,7,82,0,0,0,0,58.2,True
B-1555,2-azacyclo-nonanone,O=C1CCCCCCCN1,0.6329,141.214,1.4568,40.7117,10,1,1,2,0,58,0,1,1,1,29.1,True
B-1581,azacycloundecan-2-one,O=C1CCCCCCCCCN1,-1.8862,169.268,2.237,49.9457,12,1,1,2,0,70,0,1,1,1,29.1,True
B-1600,dimethoxon,CNC(=O)CS[P](=O)(OC)OC,0.6712,213.194999999999,0.866499999999999,48.1492,12,5,1,7,5,72,0,0,0,0,64.63,True
B-1602,"dl-methionine, n-acetyl-",CSCC[C@@H](NC(C)=O)C([O-])=O,-0.3216,190.243999999999,-1.00589999999999,45.6107,12,4,1,5,5,70,0,0,0,0,69.2299999999999,True
B-1631,"l-leucine, n-acetyl-",CC(C)C[C@H](NC(C)=O)C(O)=O,-1.3301,173.212,0.6218,44.6955,12,2,2,4,4,70,0,0,0,0,66.4,True
B-1637,"dl-alanine, n-benzoyl-",CC(NC(=O)c1ccccc1)C(O)=O,-1.6839,193.201999999999,0.8895,51.006,14,2,2,4,3,74,1,0,0,1,66.4,True
B-1638,methyl n-benzoglycine,COC(=O)CNC(=O)c1ccccc1,-1.0556,193.202,0.589399999999999,50.7912,14,3,1,4,3,74,1,0,0,1,55.4,True
B-1653,niclosamide ethanolamine salt,NCCO.Oc1ccc(Cl)cc1C(=O)Nc2ccc(cc2Cl)[N+]([O-])=O,-3.5891,388.207,2.7969,95.3166,25,6,4,10,4,134,2,0,0,2,138.72,True
B-1657,2-pyridinecarboxamide,NC(=O)c1ccccn1,0.1685,122.126999999999,0.180499999999999,32.7549,9,2,1,3,1,46,1,0,0,1,55.98,True
B-1671,"n,n-diethyl succinamic acid",CCN(CC)C(=O)CCC(O)=O,-0.7937,173.212,0.719599999999999,44.7978,12,2,1,4,5,70,0,0,0,0,57.61,True
B-1679,"benzamide, 3-(aminosulfonyl)-",NC(=O)c1cccc(c1)[S](N)(=O)=O,-2.1554,200.218999999999,-0.567099999999999,46.3331,13,3,2,6,2,70,1,0,0,1,103.25,True
B-1685,daminozide,CN(C)NC(=O)CCC(O)=O,-0.2046,160.173,-0.556,38.6994999999999,11,3,2,5,4,64,0,0,0,0,69.64,True
B-1716,nicotinanilide,O=C(Nc1ccccc1)c2cccnc2,-3.093,198.225,2.3339,58.6322,15,2,1,3,2,74,2,0,0,2,41.99,True
B-1726,"2-[(6-chloro-3-pyridazinyl)thio]-n,n-diethylacet",CCN(CC)C(=O)CSc1ccc(Cl)nn1,-1.7156,259.762,2.09049999999999,65.694,16,4,0,6,5,88,1,0,0,1,46.09,True
B-1730,fluspirilene,Fc1ccc(cc1)C(CCCN2CCC3(CC2)N(CNC3=O)c4ccccc4)c5ccc(F)cc5,-4.6772,475.583,5.3054,134.212699999999,35,3,1,6,7,182,3,2,2,5,35.58,True
B-1737,"ethanediamide, n,n'-bis(2-hydroxyethyl)-",OCCNC(=O)C(=O)NCCO,-0.1124,176.171999999999,-2.79659999999999,40.191,12,4,4,6,4,70,0,0,0,0,98.66,True
B-1769,"l-valine, n-glycyl-",CC(C)C(NC(=O)CN)C(O)=O,0.4579,174.2,-0.829499999999999,43.4589,12,3,3,5,4,70,0,0,0,0,92.42,True
B-1770,"hexanediamide, n,n'-bis(2-hydroxyethyl)-",OCCNC(=O)CCCCC(=O)NCCO,0.4121,232.279999999999,-1.23619999999999,58.659,16,4,4,6,9,94,0,0,0,0,98.66,True
B-1779,"2-propenamide, 3-(2-nitrophenyl)-",NC(=O)C=Cc1ccccc1[N+]([O-])=O,-1.2837,192.173999999999,1.0933,51.3248,14,3,1,5,3,72,1,0,0,1,86.2299999999999,True
B-1782,"4-imidazolidinone, 3-phenyl-2-thioxo-",O=C1CNC(=S)N1c2ccccc2,-3.2425,192.243,0.9077,54.5287,13,2,1,4,1,66,1,1,1,2,32.34,True
B-1789,"propanamide, 2-hydroxy-",CC(O)C(N)=O,0.9435,89.094,-1.1475,20.8752,6,2,2,3,1,36,0,0,0,0,63.32,True
B-1801,clorexolone,N[S](=O)(=O)c1cc2c(CN(C3CCCCC3)C2=O)cc1Cl,-4.3128,328.820999999999,2.2759,79.5717,21,3,1,7,2,114,1,1,2,3,80.47,True
B-1811,dicryl,CC(=C)C(=O)Nc1ccc(Cl)c(Cl)c1,-4.4325,230.094,3.508,59.9057,14,1,1,4,2,74,1,0,0,1,29.1,True
B-1840,prothoate,CCO[P](=S)(OCC)SCC(=O)NC(C)C,-2.0575,285.371,2.5417,73.2737,16,5,1,7,8,96,0,0,0,0,47.56,True
B-1841,vamidothion,CNC(=O)CCSCCS[P](=O)(OC)OC,0.5416,287.343,1.9898,70.0912,16,6,1,8,9,96,0,0,0,0,64.63,True
B-1850,cdea,CCN(CC)C(=O)CCl,-0.243,149.620999999999,1.0936,38.648,9,1,0,3,3,54,0,0,0,0,20.31,True
B-1854,"n-acetyl-l-phenylalanine, ethyl ester",CCOC(=O)[C@H](Cc1ccccc1)NC(C)=O,-1.7557,235.283,1.2969,64.3837,17,3,1,4,5,92,1,0,0,1,55.4,True
B-1872,captafol,ClC(Cl)C(Cl)(Cl)SN1C(=O)C2CC=CCC2C1=O,-5.3968,349.066,3.5209,74.729,18,3,0,8,3,100,0,1,2,2,37.38,True
B-1880,o-methoxybenzamide,COc1ccccc1C(N)=O,-1.7815,151.164999999999,0.7941,41.5119,11,2,1,3,2,58,1,0,0,1,52.32,True
B-1897,formothion,CO[P](=S)(OC)SCC(=O)N(C)C=O,-1.9954,257.272999999999,0.851699999999999,59.595,14,6,0,8,6,82,0,0,0,0,55.84,True
B-1901,"acetamide, 2,2-dichloro-n-phenyl-",ClC(Cl)C(=O)Nc1ccccc1,-3.3555,204.056,2.4288,50.5657,12,1,1,4,2,64,1,0,0,1,29.1,True
B-1911,mecarbam,CCOC(=O)N(C)C(=O)CS[P](=S)(OCC)OCC,-2.5177,329.38,2.632,79.787,19,7,0,9,8,112,0,0,0,0,65.07,True
B-1916,p-acetoxyacetanilide,CC(=O)Nc1ccc(OC(C)=O)cc1,-1.9076,193.201999999999,1.57029999999999,52.0547,14,3,1,4,2,74,1,0,0,1,55.4,True
B-1929,"n,n'-bis-phenylacetyl-cystine",OC(=O)C(CSSCC(NC(=O)Cc1ccccc1)C(O)=O)NC(=O)Cc2ccccc2,-1.833,476.576,1.992,124.341,32,6,4,10,13,170,2,0,0,2,132.8,True
B-1961,"dl-valine, n-acetyl-",CC(C)C(NC(C)=O)C(O)=O,-0.6325,159.184999999999,0.231699999999999,40.0785,11,2,2,4,3,64,0,0,0,0,66.4,True
B-1968,"l-asparagine, n2-(aminocarbonyl)-",NC(=O)C[C@H](NC(N)=O)C(O)=O,-0.511,175.144,-2.0167,37.9542999999999,12,3,4,7,4,68,0,0,0,0,135.51,True
B-1969,"benzamide, n-(3,4-dichlorophenyl)-n-[(dimethylam",CN(C)C(=O)N(c1ccc(Cl)c(Cl)c1)C(=O)c2ccccc2,-4.3238,337.206,4.3218,88.7965,22,2,0,6,2,114,2,0,0,2,40.62,True
B-1971,"glycine, n-(n-leucylglycyl)-",CC(C)C[C@H](N)C(=O)NCC(=O)NCC(O)=O,0.2124,245.278999999999,-1.32319999999999,61.0856,17,4,4,7,7,98,0,0,0,0,121.52,True
B-1979,"morpholine, 4-(2-hydroxybenzoyl)-",Oc1ccccc1C(=O)N2CCOCC2,-1.7037,207.228999999999,0.8646,54.8293,15,3,1,4,1,80,1,1,1,2,49.7699999999999,True
B-1996,"propanamide, n,n'-1,2-ethanediylbis-",CCC(=O)NCCNC(=O)CC,0.3746,172.227999999999,0.0387999999999992,46.6014,12,2,2,4,5,70,0,0,0,0,58.2,True
B-2009,chlorphenoxamide,OCCN(Cc1ccc(Oc2ccc(cc2)[N+]([O-])=O)cc1)C(=O)C(Cl)Cl,-5.1241,399.23,3.5117,97.6092,26,5,1,9,8,138,2,0,0,2,92.91,True
B-2012,reposal,CCC1(C(=O)NC(=O)NC1=O)C2=CC3CCC(C3)C2,-2.7696,262.308999999999,1.49519999999999,67.9364,19,3,2,5,2,102,0,2,3,3,75.27,True
B-2016,4-ethylacetanilide,CCc1ccc(NC(C)=O)cc1,-2.1453,163.22,2.2074,50.1237,12,1,1,2,2,64,1,0,0,1,29.1,True
B-2028,cyanthoate,CCO[P](=O)(OCC)SCC(=O)NC(C)(C)C#N,-0.6237,294.313,2.31908,71.1512,18,6,1,8,8,104,0,0,0,0,88.4199999999999,True
B-2035,"propanedioic acid, dihydrazide",NNC(=O)CC(=O)NN,-0.121,132.123,-2.6437,29.2772,9,4,4,6,2,52,0,0,0,0,110.24,True
B-2039,"d-gluconic acid, hydrazide",NNC(=O)C(O)C(O)C(O)C(O)CO,-0.4985,210.185999999999,-4.58779999999999,43.4431,14,7,7,8,5,84,0,0,0,0,156.269999999999,True
B-2081,"piperazine-2,5-dione, 3-methyl-",CC1NC(=O)CNC1=O,0.2903,128.131,-1.37909999999999,30.6143999999999,9,2,2,4,0,50,0,1,1,1,58.2,True
B-2095,n-phenylphthalamic acid,OC(=O)c1ccccc1C(=O)Nc2ccccc2,-4.0814,241.246,2.6371,67.7965,18,2,2,4,3,90,2,0,0,2,66.3999999999999,True
B-2112,"acetamide, 2-chloro-n-(chloroacetyl)-",ClCC(=O)NC(=O)CCl,-2.2304,169.994999999999,0.106799999999999,34.5897,9,2,1,5,2,52,0,0,0,0,46.17,True
B-2115,"benzoic acid, 2-(acetyloxy)-, 4-(acetylamino)phe",CC(=O)Nc1ccc(OC(=O)c2ccccc2OC(C)=O)cc1,-4.1949,313.309,2.7895,83.4552,23,5,1,6,4,118,2,0,0,2,81.6999999999999,True
B-2122,ditalimfos (laptran),CCO[P](=S)(OCC)N1C(=O)c2ccccc2C1=O,-3.3522,299.288,2.5801,74.479,19,5,0,7,5,102,1,0,1,2,55.84,True
B-2128,"acetamide, n-(4-chloro-2-methylphenyl)-",CC(=O)Nc1ccc(Cl)cc1C,-2.3097,183.637999999999,2.60682,50.4927,12,1,1,3,1,64,1,0,0,1,29.1,True
B-2134,"propanamide, n-hexadecyl-2-hydroxy-",CCCCCCCCCCCCCCCCNC(=O)C(C)O,-3.6512,313.525999999999,4.9647,95.0025,22,2,2,3,16,132,0,0,0,0,49.33,True
B-2135,"propanamide, 2-hydroxy-n-pentyl-",CCCCCNC(=O)C(C)O,-0.3825,159.228999999999,0.673599999999999,44.2155,11,2,2,3,5,66,0,0,0,0,49.33,True
B-2149,n-hexyl-lactamide,CCCCCCNC(=O)C(C)O,-0.9487,173.256,1.06369999999999,48.8325,12,2,2,3,6,72,0,0,0,0,49.33,True
B-2153,"(2,5-dioxoimidazolidin-4-yl)acetic acid",OC(=O)CC1NC(=O)NC1=O,-1.1517,158.113,-1.3309,32.7151999999999,11,3,3,6,2,60,0,1,1,1,95.5,True
B-2155,"carbamothioic acid, s-[2-oxo-2-(phenylamino)ethy",NC(=O)SCC(=O)Nc1ccccc1,-1.3228,210.258,1.437,57.1131,14,3,2,5,3,74,1,0,0,1,72.19,True
B-2163,"2h-1,4-benzoxazin-3(4h)-one",O=C1COc2ccccc2N1,-2.5716,149.148999999999,1.01749999999999,40.5667,11,2,1,3,0,56,1,0,1,2,38.33,True
B-2176,"3,6-dimethylpiperazine-2,5-dione",C[C@@H]1NC(=O)[C@@H](C)NC1=O,-0.1528,142.158,-0.990599999999999,35.2093999999999,10,2,2,4,0,56,0,1,1,1,58.2,True
B-2177,"2-pyrrolidinecarboxamide, 5-oxo-n-phenyl-",O=C1CCC(N1)C(=O)Nc2ccccc2,-1.3278,204.229,0.903699999999999,56.2364,15,2,2,4,2,78,1,1,1,2,58.2,True
B-2181,"glycine, n-(2-furanylcarbonyl)-",OC(=O)CNC(=O)c1occc1,-0.7272,169.136,0.0939999999999997,38.677,12,3,2,5,3,64,1,0,0,1,79.54,True
B-2187,"benzoic acid, 4-[(3-pyridinylcarbonyl)amino]-",OC(=O)c1ccc(NC(=O)c2cccnc2)cc1,-3.0832,242.234,2.0321,65.5915,18,3,2,5,3,90,2,0,0,2,79.29,True
B-2190,"1,8,15,22-tetraazacyclooctacosane-2,9,16,23-tetr",O=C1CCCCCNC(=O)CCCCCNC(=O)CCCCCNC(=O)CCCCCN1,-2.8126,452.64,2.7064,125.9108,32,4,4,8,0,184,0,1,1,1,116.4,True
B-2210,"2(1h)-azecinone, octahydro-",O=C1CCCCCCCCN1,-1.0737,155.241,1.8469,45.3287,11,1,1,2,0,64,0,1,1,1,29.1,True
B-2216,"2h-azepin-2-one, 1-benzoylhexahydro-",O=C1CCCCCN1C(=O)c2ccccc2,-2.1667,217.268,2.2294,60.9535,16,2,0,3,1,84,1,1,1,2,37.38,True
B-2221,"lactamide, n-octyl-",CCCCCCCCNC(=O)C(C)O,-2.2827,201.31,1.8439,58.0665,14,2,2,3,8,84,0,0,0,0,49.33,True
B-2222,"lactamide, n-decyl-",CCCCCCCCCCNC(=O)C(C)O,-3.3605,229.364,2.6241,67.3005,16,2,2,3,10,96,0,0,0,0,49.33,True
B-2230,"benzamide, 4-(aminosulfonyl)-",NC(=O)c1ccc(cc1)[S](N)(=O)=O,-2.3015,200.218999999999,-0.567099999999999,46.3331,13,3,2,6,2,70,1,0,0,1,103.25,True
B-2238,"1,2-benzenedicarboxamide, n,n,n',n'-tetramethyl-",CN(C)C(=O)c1ccccc1C(=O)N(C)C,0.5083,220.271999999999,1.0902,62.477,16,2,0,4,2,86,1,0,0,1,40.62,True