ID,Name,SMILES,LogS,MolWt,MolLogP,MolMR,HeavyAtomCount,NumHAcceptors,NumHDonors,NumHeteroatoms,NumRotatableBonds,NumValenceElectrons,NumAromaticRings,NumSaturatedRings,NumAliphaticRings,RingCount,TPSA,IsAmide
A-4163,"(2S,5R)-6-amino-3,3-dimethyl-7-oxo-4-thia-1-azabicyclo[3.2.0]heptane-2-carboxylic acid",CC1(C)S[C@@H]2[C@H](N)C(=O)N2[C@H]1C(O)=O,-1.94404510789999,216.262,-0.5394,51.7032,14,4,2,6,1,78,0,2,2,2,83.63,True
A-4192,"N-(2,4-dimethylphenyl)-3-oxobutanamide",CC(=O)CC(=O)Nc1ccc(C)cc1C,-1.99007868229999,205.256999999999,2.22104,59.8437,15,2,1,3,3,80,1,0,0,1,46.17,True
A-4193,N-(2-methoxy-5-methylphenyl)acetamide,COc1ccc(C)cc1NC(C)=O,-1.931164755,179.218999999999,1.96201999999999,52.0347,13,2,1,3,2,70,1,0,0,1,38.33,True
A-4197,"5-methyl-2-phenyl-2,3-dihydro-1H-pyrazol-3-one",CC1=NN(C(=O)C1)c2ccccc2,-1.9250852844,174.203,1.7992,51.654,13,2,0,3,1,66,1,0,1,2,32.67,True
A-4202,"2-Hydroxy-N,N-dimethylpropanamide",CC(O)C(=O)N(C)C,1.6302351258,117.148,-0.5446,30.3747999999999,8,2,1,3,1,48,0,0,0,0,40.54,True
A-4217,"disodium 4-{4-[(E)-2-[5-(2-bromoprop-2-enamido)-2-sulfonatophenyl]diazen-1-yl]-3-methyl-5-oxo-4,5-dihydro-1H-pyrazol-1-yl}-2,5-dichlorobenzene-1-sulfonate",[Na+].[Na+].CC1=NN(C(=O)C1N=Nc2cc(NC(=O)C(Br)=C)ccc2[S]([O-])(=O)=O)c3cc(Cl)c(cc3Cl)[S]([O-])(=O)=O,-0.5501699754,699.256,-2.46829999999999,134.426099999999,39,11,1,20,7,196,2,0,1,3,200.89,True
A-4293,"trisodium 4-{[4-({3-[(4-amino-6-chloro-1,3,5-triazin-2-yl)amino]-4-sulfonatophenyl}amino)-6-chloro-1,3,5-triazin-2-yl]amino}-6-[(E)-2-(5-carbamoyl-1-ethyl-2-hydroxy-4-methyl-6-oxo-1,6-dihydropyridin-3-yl)diazen-1-yl]benzene-1,3-disulfonate",[Na+].[Na+].[Na+].CCN1C(=O)C(=N/Nc2cc(Nc3nc(Cl)nc(Nc4ccc(c(Nc5nc(N)nc(Cl)n5)c4)[S]([O-])(=O)=O)n3)c(cc2[S]([O-])(=O)=O)[S]([O-])(=O)=O)\C(=C(C(N)=O)C1=O)C,-0.7590012125,969.628,-9.14090000000001,196.054199999999,61,24,6,34,13,306,4,0,1,5,415.909999999999,True
A-4304,ammonium sodium 2-[4-[[1-[[(2-methoxy-5-methyl-4-sulphonatophenyl)amino]carbonyl]-2-oxopropyl]azo]phenyl]-6-methylbenzothiazole-7-sulphonate,[NH4+].[Na+].COc1cc(c(C)cc1NC(=O)C(N=Nc2ccc(cc2)c3sc4c(ccc(C)c4[S]([O-])(=O)=O)n3)C(C)=O)[S]([O-])(=O)=O,-0.6230624777,671.711,1.45714,157.049899999999,44,13,2,18,9,228,4,0,0,4,243.909999999999,True
A-4308,2-aminobenzamide,NC(=O)c1ccccc1N,-0.9139223167,136.153999999999,0.3677,39.3723,10,2,2,3,1,52,1,0,0,1,69.11,True
A-4359,"5,5-dimethylimidazolidine-2,4-dione",CC1(C)NC(=O)NC1=O,0.0384738201,128.131,-0.3956,30.7533999999999,9,2,2,4,0,50,0,1,1,1,58.2,True
A-4367,"disodium 2-[(E)-2-[3-methyl-5-oxo-1-(4-sulfonatophenyl)-4,5-dihydro-1H-pyrazol-4-yl]diazen-1-yl]benzoate",[Na+].[Na+].CC1=NN(C(=O)C1N=Nc2ccccc2C([O-])=O)c3ccc(cc3)[S]([O-])(=O)=O,-1.491314993,446.352,-5.16279999999999,94.0767,30,9,0,13,5,144,2,0,1,3,154.72,True
A-4395,copper(2+) ion bis(5-oxopyrrolidine-2-carboxylate),[Cu++].[O-]C(=O)C1CCC(=O)N1.[O-]C(=O)C2CCC(=O)N2,-0.384250204,319.76,-3.97269999999999,52.3434,19,6,2,9,2,109,0,2,2,2,138.459999999999,True
A-4435,disodium 6-amino-5-[(E)-2-[4-(2-bromoprop-2-enamido)-2-sulfonatophenyl]diazen-1-yl]-4-hydroxynaphthalene-2-sulfonate,[Na+].[Na+].[O-][S](=O)(=O)C1=CC(=O)C2=C(NNc3ccc(NC(=O)C(Br)=C)cc3[S]([O-])(=O)=O)C(=N)C=CC2=C1,-1.6785332004,615.351,-4.85582999999999,122.6232,36,11,4,17,7,178,1,0,2,3,208.48,True
A-4444,"3a,4,7,7a-tetrahydro-1H-isoindole-1,3(2H)-dione",O=C1NC(=O)C2CC=CCC12,-1.0930914177,151.164999999999,0.225199999999999,38.5037,11,2,1,3,0,58,0,1,2,2,46.17,True
A-4456,"5-(benzoylamino)-3-[[5-[[(5-chloro-2,6-difluoro-4-pyrimidinyl)amino]methyl]-1-sulpho-2-naphthyl]azo]-4-hydroxynaphthalene-2,7-disulphonic acid, lithium sodium salt",[Li+].[Na+].[Na+].[O-][S](=O)(=O)c1cc(NC(=O)c2ccccc2)c3C(=O)C(=N/Nc4ccc5c(CNc6nc(F)nc(F)c6Cl)cccc5c4[S]([O-])(=O)=O)/C(=Cc3c1)[S]([O-])(=O)=O,-0.8900865081,885.098,-5.2035,188.058699999999,58,16,3,26,10,284,5,0,1,6,279.969999999999,True
A-4468,"1,3-diazinane-2,4,6-trione",O=C1CC(=O)NC(=O)N1,-1.0486616392,128.087,-1.2575,26.2984,9,3,2,5,0,48,0,1,1,1,75.27,True
A-4472,2-(4-methyl-5-oxo-4-propan-2-yl-1H-imidazol-2-yl)pyridine-3-carboxylic acid,CC(C)C1(C)N=C(NC1=O)c2ncccc2C(O)=O,-1.3640293861,261.281,1.0709,69.119,19,4,2,6,3,100,1,0,1,2,91.65,True
A-4493,hexanedihydrazide,NNC(=O)CCCCC(=O)NN,-0.2324579511,174.204,-1.47339999999999,43.1282,12,4,4,6,5,70,0,0,0,0,110.24,True
A-4498,1-methylpyrrolidin-2-one,CN1CCCC1=O,1.0037817508,99.133,0.238599999999999,26.8709999999999,7,1,0,2,0,40,0,1,1,1,20.31,True
A-4524,"N,N-dimethylacetamide",CN(C)C(C)=O,1.0598721633,87.1219999999999,0.0945,24.3679999999999,6,1,0,2,0,36,0,0,0,0,20.31,True
A-4527,N-methylacetamide,CNC(C)=O,1.1361123296,73.095,-0.2477,19.7406999999999,5,1,1,2,0,30,0,0,0,0,29.1,True
A-4588,3-amino-4-chlorobenzamide,NC(=O)c1ccc(Cl)c(N)c1,-1.976703976,170.599,1.0211,44.3823,11,2,2,4,1,58,1,0,0,1,69.11,True
A-4648,"N,N-dimethylnonanamide",CCCCCCCCC(=O)N(C)C,-2.1440495587,185.311,2.8252,56.687,13,1,0,2,7,78,0,0,0,0,20.31,True
A-4654,"5-(4-hydroxyphenyl)imidazolidine-2,4-dione",Oc1ccc(cc1)C2NC(=O)NC2=O,-2.1731049195,192.173999999999,0.272699999999999,47.5222,14,3,3,5,1,72,1,1,1,2,78.43,True
A-4664,N-acetyl-N-[2-(N-acetylacetamido)ethyl]acetamide,CC(=O)N(CCN(C(C)=O)C(C)=O)C(C)=O,-2.2792257347,228.248,-0.2236,56.136,16,4,0,6,3,90,0,0,0,0,74.76,True
A-4683,1-octylpyrrolidin-2-one,CCCCCCCCN1CCCC1=O,-2.2577490108,197.321999999999,2.9693,59.19,14,1,0,2,7,82,0,1,1,1,20.31,True
A-4690,"N-(2,4,4-trimethylpentan-2-yl)prop-2-enamide",CC(C)(C)CC(C)(C)NC(=O)C=C,-2.25882924449999,183.295,2.5034,56.4907,13,1,1,2,3,76,0,0,0,0,29.1,True
A-4701,"sodium 1-amino-9,10-dioxo-4-[(3-propanamidophenyl)amino]-9,10-dihydroanthracene-2-sulfonate",[Na+].CCC(=O)Nc1cccc(Nc2cc(c(N)c3C(=O)c4ccccc4C(=O)c23)[S]([O-])(=O)=O)c1,-2.6879470025,487.469,0.0444000000000008,120.77,34,8,3,11,5,168,3,0,1,4,158.489999999999,True
A-4724,N-(2-chlorophenyl)-3-oxobutanamide,CC(=O)CC(=O)Nc1ccccc1Cl,-2.4065360765,211.648,2.2576,55.3797,14,2,1,4,3,74,1,0,0,1,46.17,True
A-4744,"3-oxo-N-(2-oxo-2,3-dihydro-1H-1,3-benzodiazol-5-yl)butanamide",CC(=O)CC(=O)Nc1ccc2NC(=O)Nc2c1,-2.522680786,233.227,0.7738,62.8471,17,3,3,6,3,88,2,0,0,2,94.82,True
A-4790,N-dodecanoyl-N-methylglycine,CCCCCCCCCCCC(=O)N(C)CC(O)=O,-2.7346414392,271.400999999999,3.4503,77.1168,19,2,1,4,12,112,0,0,0,0,57.61,True
A-4831,"ethyl 1,3-dioxo-1,3-dihydro-2H-isoindole-2-carboxylate",CCOC(=O)N1C(=O)c2ccccc2C1=O,-2.7387726333,219.196,1.4391,53.964,16,4,0,5,1,82,1,0,1,2,63.68,True
A-4851,"disodium 4,5-dichloro-2-[(E)-2-[3-methyl-5-oxo-1-(3-sulfonatophenyl)-4,5-dihydro-1H-pyrazol-4-yl]diazen-1-yl]benzene-1-sulfonate",[Na+].[Na+].CC1=NN(c2cccc(c2)[S]([O-])(=O)=O)C(=O)C1N=Nc3cc(Cl)c(Cl)cc3[S]([O-])(=O)=O,-3.26426437449999,551.297,-3.31539999999999,107.7294,33,10,0,17,5,164,2,0,1,3,171.79,True
A-4890,7-amino-3-methyl-8-oxo-5-thia-1-azabicyclo[4.2.0]oct-2-ene-2-carboxylic acid,CC1=C(N2C(SC1)C(N)C2=O)C(O)=O,-3.0453554133,214.245999999999,-0.4126,51.4032,14,4,2,6,1,76,0,1,2,2,83.63,True
A-4894,2-hydroxy-4-methylbenzamide,Cc1ccc(C(N)=O)c(O)c1,-2.9170001587,151.165,0.79952,41.3617,11,2,2,3,1,58,1,0,0,1,63.32,True
A-4896,"6-chloro-2,3-dihydro-1H-indol-2-one",Clc1ccc2CC(=O)Nc2c1,-2.9689885527,167.595,1.83459999999999,43.7857,11,1,1,3,0,56,1,0,1,2,29.1,True
A-4926,N-(1-benzylpiperidin-4-yl)-N-phenylpropanamide,CCC(=O)N(C1CCN(CC1)Cc2ccccc2)c3ccccc3,-3.4150433898,322.452,4.0942,98.96,24,2,0,3,5,126,2,1,1,3,23.55,True
A-4967,(5-amino-3-hydroxy-5-oxopentylidene)-dimethylazanium chloride,[Cl-].C[N+](C)=CCC(O)CC(N)=O,0.5931295033,194.661999999999,-4.04029999999999,42.6076,12,2,2,5,4,72,0,0,0,0,66.33,True
A-4972,"N-(2,6-dimethylphenyl)-2-piperazine-1,4-diium-1-ylacetamide",Cc1cccc(C)c1NC(=O)C[NH+]2CC[NH2+]CC2,0.4432827885,249.357999999999,-1.29615999999999,71.7688,18,1,3,4,3,98,1,1,1,2,50.15,True
A-4975,N-(4-fluorophenyl)-2-hydroxy-N-propan-2-ylacetamide,CC(C)N(C(=O)CO)c1ccc(F)cc1,-1.1786398993,211.236,1.5594,56.1078,15,2,1,4,3,82,1,0,0,1,40.54,True
A-4994,2-amino-3-hydroxypropanehydrazide hydrochloride,[H+].[Cl-].NNC(=O)C(N)CO,0.5104628122,155.584999999999,-5.58759999999999,28.5033,9,4,4,6,2,56,0,0,0,0,101.37,True
A-5006,disodium 4-[[(Z)-octadec-9-enyl]amino]-4-oxo-2-sulfonatobutanoate,[Na+].[Na+].CCCCCCCC\C=C/CCCCCCCCNC(=O)CC(C([O-])=O)[S]([O-])(=O)=O,-0.0195157831,491.602,-2.79809999999999,115.5709,32,6,1,10,20,176,0,0,0,0,126.429999999999,True
A-5026,"3-ethyl 5-methyl 4-(2-chlorophenyl)-1,4-dihydro-2-[2-(1,3-dihydro-1,3-dioxo-(2H)isoindol-2-yl)-ethoxymethyl]-6-methyl-3,5-pyridinedicarboxylate",CCOC(=O)C1=C(COCCN2C(=O)c3ccccc3C2=O)NC(=C(C1c4ccccc4Cl)C(=O)OC)C,-4.5011269518,538.984,3.6038,138.331699999999,38,8,1,10,9,198,2,0,2,4,111.24,True
A-5043,"ethyl 1-(4-methoxyphenyl)-7-oxo-6-[4-(2-oxopiperidin-1-yl)phenyl]-1H,4H,5H,6H,7H-pyrazolo[3,4-c]pyridine-3-carboxylate",CCOC(=O)c1nn(c2ccc(OC)cc2)c3C(=O)N(CCc13)c4ccc(cc4)N5CCCCC5=O,-4.6282058436,488.544,3.7774,134.099,36,7,0,9,6,186,3,1,2,5,93.9699999999999,True
A-5065,"7-chloro-5-(2-chlorophenyl)-2-oxo-2,3-dihydro-1H-1,4-benzodiazepin-3-yl acetate",CC(=O)OC1N=C(c2ccccc2Cl)c3cc(Cl)ccc3NC1=O,-5.02866692279999,363.2,3.6721,92.7267,24,4,1,7,2,122,2,0,1,3,67.7599999999999,True
A-5100,"ethyl 1-(4-methoxyphenyl)-6-(4-nitrophenyl)-7-oxo-1H,4H,5H,6H,7H-pyrazolo[3,4-c]pyridine-3-carboxylate",CCOC(=O)c1nn(c2ccc(OC)cc2)c3C(=O)N(CCc13)c4ccc(cc4)[N+]([O-])=O,-6.6187193264,436.424,3.1687,114.5494,32,8,0,10,6,164,3,0,1,4,116.799999999999,True
A-5106,2-oxo-N-[4-({4-[(2-oxoazepane-1-carbonyl)amino]phenyl}methyl)phenyl]azepane-1-carboxamide,O=C1CCCCCN1C(=O)Nc2ccc(Cc3ccc(NC(=O)N4CCCCCC4=O)cc3)cc2,-7.76326126159999,476.577,5.1464,134.089399999999,35,4,2,8,4,184,2,2,2,4,98.82,True
A-5139,N-(butoxymethyl)prop-2-enamide,CCCCOCNC(=O)C=C,-0.6536630282,157.213,1.0628,44.0667,11,2,1,3,6,64,0,0,0,0,38.33,True
A-5143,sodium [methyl(oleoyl)amino]acetate,[Na+].CCCCCCCC/C=C/CCCCCCCC(=O)N(C)CC([O-])=O,-0.0975222259999999,375.529,1.2362,102.096,26,3,0,5,17,146,0,0,0,0,60.44,True
A-5145,(2R)-2-hydroxy-N-(2-hydroxyethyl)propanamide,CC(O)C(=O)NCCO,1.3070323786,133.147,-1.5243,31.7762999999999,9,3,3,4,3,54,0,0,0,0,69.56,True
A-5179,6-[(1-formyloctyl)amino]hexanoic acid,CC(C)CCCCCC(=O)NCCCCCC(O)=O,-2.7708536118,271.400999999999,3.3541,77.0365,19,2,2,4,12,112,0,0,0,0,66.4,True
A-5199,N-(methoxymethyl)-2-methylprop-2-enamide,COCNC(=O)C(C)=C,0.7919653131,129.159,0.2826,34.8326999999999,9,2,1,3,3,52,0,0,0,0,38.33,True
A-5207,"sodium 4-{4-[(E)-2-(3-chloro-2-hydroxy-5-nitrophenyl)diazen-1-yl]-3-methyl-5-oxo-4,5-dihydro-1H-pyrazol-1-yl}benzene-1-sulfonate",[Na+].CC1=NN(C(=O)C1N\N=C\2C=C(C=C(Cl)C2=O)[N+]([O-])=O)c3ccc(cc3)[S]([O-])(=O)=O,-0.8385771725,475.802,-2.50259999999999,103.379299999999,31,10,1,15,5,156,1,0,2,3,174.47,True
A-5210,"N,N,N',N'-tetrakis(2-hydroxypropyl)hexanediamide",CC(O)CN(CC(C)O)C(=O)CCCCC(=O)N(CC(C)O)CC(C)O,0.2109933627,376.494,-0.272799999999998,98.3512,26,6,4,8,13,154,0,0,0,0,121.54,True
A-5226,"(2R)-2,4-dihydroxy-N-(3-hydroxypropyl)-3,3-dimethylbutanamide",CC(C)(CO)[C@@H](O)C(=O)NCCCO,0.3944261529,205.253999999999,-1.13559999999999,51.5861,14,4,4,5,6,84,0,0,0,0,89.79,True
A-5232,2-acrylamido-2-methylpropanesulphonic acid,[Na+].CC(C)(C[S]([O-])(=O)=O)NC(=O)C=C,0.3386928662,229.232999999999,-3.38359999999999,46.9829,14,4,1,7,4,76,0,0,0,0,86.2999999999999,True
A-5249,(3-dodecanamidopropyl)trimethylazanium methyl sulfate,CCCCCCCCCCCC(=O)NCCC[N+](C)(C)C.CO[S]([O-])(=O)=O,-0.011381165,410.621,3.2128,109.0763,27,5,1,8,15,164,0,0,0,0,95.53,True
A-5258,2-[(9Z)-N-methyloctadec-9-enamido]acetic acid; 2-[bis(2-hydroxyethyl)amino]ethan-1-ol,CCCCCCCC\C=C/CCCCCCCC(=O)N(C)CC(O)=O.OCCN(CCO)CCO,0.775780405499999,502.737,3.8322,142.422199999999,35,6,4,8,23,208,0,0,0,0,121.54,True
A-5263,potassium (Z)-N-methyl-N-(1-oxo-9-octadecenyl)aminoacetate,[K+].CCCCCCCC\C=C/CCCCCCCC(=O)N(C)CC([O-])=O,-0.1215920041,391.637,1.2362,102.096,26,3,0,5,17,146,0,0,0,0,60.44,True
A-5279,ammonium 4-(acetoacetylamino)-5-methoxy-2-methylbenzenesulfonate,[NH4+].COc1cc(c(C)cc1NC(=O)CC(C)=O)[S]([O-])(=O)=O,-0.2018762227,318.351,1.20151999999999,75.6067,21,6,2,9,5,118,1,0,0,1,149.1,True
A-5283,"tris(tris(2-hydroxyethyl)azanium) 2-(cyanoamino)-5-{2-[4-({4-[2-(6,8-disulfonatonaphthalen-2-yl)diazen-1-yl]-2-methoxyphenyl}carbamoyl)phenyl]diazen-1-yl}-6-hydroxypyrimidin-4-olate",COc1cc(ccc1NC(=O)c2ccc(cc2)N=Nc3c(O)nc(NC#N)nc3[O-])N=Nc4ccc5cc(cc(c5c4)[S]([O-])(=O)=O)[S]([O-])(=O)=O.OCC[NH+](CCO)CCO.OCC[NH+](CCO)CCO.OCC[NH+](CCO)CCO,-0.8216489824,1167.244,-5.25351999999999,278.457399999999,80,27,15,33,28,440,5,0,0,5,502.45,True
A-5313,1-ethylpyrrolidin-2-one,CCN1CCCC1=O,0.9463070612,113.16,0.6287,31.4879999999999,8,1,0,2,1,46,0,1,1,1,20.31,True
A-5328,"3-[3-(hydroxymethyl)-2,5-dioxoimidazolidin-4-yl]-1-[({[3-(hydroxymethyl)-2,5-dioxoimidazolidin-4-yl]carbamoyl}amino)methyl]urea",OCN1C(NC(=O)NCNC(=O)NC2N(CO)C(=O)NC2=O)C(=O)NC1=O,0.410835964799999,388.297,-4.80229999999999,80.7047999999999,27,8,8,16,6,148,0,2,2,2,221.539999999999,True
A-5332,3-oxobutanamide,CC(=O)CC(N)=O,0.9952273665,101.105,-0.5492,24.4923999999999,7,2,1,3,2,40,0,0,0,0,60.16,True
A-5334,4-acetylmorpholine,CC(=O)N1CCOCC1,0.8888753261,129.159,-0.1349,33.0729999999999,9,2,0,3,0,52,0,1,1,1,29.54,True
A-5337,"N,N-dimethyl-3-oxobutanamide",CN(C)C(=O)CC(C)=O,0.8888753261,129.159,0.0536999999999998,33.9919999999999,9,2,0,3,2,52,0,0,0,0,37.38,True
A-5359,nadide,NC(=O)c1ccc[n+](c1)C2OC(CO[P]([O-])(=O)O[P](O)(=O)OCC3OC(C(O)C3O)n4cnc5c(N)ncnc45)C(O)C2O,0.178204893799999,663.43,-3.64789999999999,137.1583,44,18,7,23,11,240,3,2,2,5,321.09,True
A-5388,3-[(2-hydroxyethyl)amino]propanamide,NC(=O)CCNCCO,-0.1211098882,132.163,-1.5563,33.7669,9,3,3,4,5,54,0,0,0,0,75.35,True
A-5402,"N,N-bis(2-hydroxyethyl)undec-10-enamide",OCCN(CCO)C(=O)CCCCCCCCC=C,-2.7615135856,271.400999999999,2.10639999999999,77.8846,19,3,2,4,13,112,0,0,0,0,60.77,True
A-5405,"N-(2-oxo-2,3-dihydropyrimidin-4-yl)benzamide",O=C1NC(=CC=N1)NC(=O)c2ccccc2,-5.1596802151,215.212,1.0222,59.2529,16,3,2,5,2,80,2,0,0,2,74.85,True
A-5413,"7-fluoro-1,3-dihydroindol-2-one",Fc1cccc2CC(=O)Nc12,-2.2251369084,151.14,1.3203,38.7337,11,1,1,3,0,56,1,0,1,2,29.1,True
A-5416,"disodium (6Z)-4-amino-3-[4-[[4-(2,4-diaminophenyl)diazenylphenyl]carbamoyl]phenyl]diazenyl-5-oxo-6-(phenylhydrazinylidene)naphthalene-2,7-disulfonate",[Na+].[Na+].Nc1ccc(N=Nc2ccc(NC(=O)c3ccc(cc3)N=Nc4c(N)c5C(=O)C(=N/Nc6ccccc6)/C(=Cc5cc4[S]([O-])(=O)=O)[S]([O-])(=O)=O)cc2)c(N)c1,-1.3406827143,824.769,-0.0210999999999937,202.777999999999,57,17,5,22,10,278,5,0,1,6,312.46,True
A-5433,"3-(3-carbamoyl-6-hydroxy-4-methyl-2-oxo-1,2-dihydropyridin-1-yl)propanoic acid",CC1=C(C(N)=O)C(=O)N(CCC(O)=O)C(=C1)O,-1.6024488726,240.214999999999,-0.56408,57.8745,17,5,3,7,4,92,1,0,0,1,122.62,True
A-5437,(2S)-2-amino-6-octanamidohexanoic acid,CCCCCCCC(=O)NCCCC[C@H](N)C(O)=O,0.0575708237,272.388999999999,2.0453,75.8479,19,3,3,5,12,112,0,0,0,0,92.42,True
A-5462,N-benzyl-2-acetamido-3-methoxypropanamide,COCC(NC(C)=O)C(=O)NCc1ccccc1,-3.3984573794,250.298,0.4539,67.7694,18,3,2,5,6,98,1,0,0,1,67.4299999999999,True
A-5479,Calcoloid Olive r,O=C(Nc1cc2c([nH]c3c2cc(NC(=O)c4ccccc4)c5C(=O)c6ccccc6C(=O)c35)c7C(=O)c8ccccc8C(=O)c17)c9ccccc9,-4.5222231174,665.661,6.7549,202.071099999999,51,6,3,9,4,242,9,0,0,9,142.269999999999,True
A-5493,"2-{[2-(acetyloxy)ethyl]({4-[(E)-2-(2-chloro-4,6-dinitrophenyl)diazen-1-yl]-5-acetamido-2-methoxyphenyl})amino}ethyl acetate",COc1cc(N=Nc2c(Cl)cc(cc2[N+]([O-])=O)[N+]([O-])=O)c(NC(C)=O)cc1N(CCOC(C)=O)CCOC(C)=O,-5.4630997896,580.938,4.4714,141.713499999999,40,13,1,17,13,214,2,0,0,2,205.17,True
A-5497,(9Z)-N-(2-hydroxypropyl)octadec-9-enamide,CCCCCCCC\C=C/CCCCCCCC(=O)NCC(C)O,-5.5309216408,339.563999999999,5.5209,104.1425,24,2,2,3,17,142,0,0,0,0,49.33,True
A-5515,Solvent red 135,Clc1c(Cl)c(Cl)c2C3=Nc4cccc5cccc(N3C(=O)c2c1Cl)c45,-7.1336144776,408.071,6.472,102.4435,25,3,0,7,0,122,4,0,1,5,34.89,True
A-5540,"N-(2,5-dichloro-4-{4-[(E)-2-(2,5-dichlorophenyl)diazen-1-yl]-3-hydroxynaphthalene-2-amido}phenyl)-4-[(E)-2-(2,5-dichlorophenyl)diazen-1-yl]-3-hydroxynaphthalene-2-carboxamide",Clc1ccc(Cl)c(N\N=C2/C(=O)C(=Cc3ccccc23)C(=O)Nc4cc(Cl)c(NC(=O)C5=Cc6ccccc6C(=N/Nc7cc(Cl)ccc7Cl)\C5=O)cc4Cl)c1,-8.1508681249,863.372,10.4489999999999,225.816799999999,56,8,4,16,8,278,5,0,2,7,141.12,True
A-5546,calcium bis(4-[(E)-2-{1-[(2-methylphenyl)carbamoyl]-2-oxopropyl}diazen-1-yl]-3-nitrobenzene-1-sulfonate),[Ca++].Cc1ccccc1NC(=O)CC(=O)CN=Nc2ccc(cc2[N+]([O-])=O)[S]([O-])(=O)=O.Cc3ccccc3NC(=O)CC(=O)CN=Nc4ccc(cc4[N+]([O-])=O)[S]([O-])(=O)=O,-7.7398036692,878.867999999999,4.59704,205.504599999999,59,18,2,25,16,304,4,0,0,4,342.46,True
A-5581,"propan-2-yl 3-[(Z)-2-{3-[(2,5-dichloro-4-{3-hydroxy-4-[(Z)-2-{2-methyl-5-[(propan-2-yloxy)carbonyl]phenyl}diazen-1-yl]naphthalene-2-amido}phenyl)carbamoyl]-2-hydroxynaphthalen-1-yl}diazen-1-yl]-4-methylbenzoate",CC(C)OC(=O)c1ccc(C)c(c1)N=Nc2c(O)c(cc3ccccc23)C(=O)Nc4cc(Cl)c(NC(=O)c5cc6ccccc6c(N=Nc7cc(ccc7C)C(=O)OC(C)C)c5O)cc4Cl,-7.0074879806,925.825999999999,13.7936399999999,255.406999999999,66,12,4,16,12,334,7,0,0,7,200.7,True
A-5583,"3-hydroxy-N-(2-methylphenyl)-4-[(E)-2-(2,4,5-trichlorophenyl)diazen-1-yl]naphthalene-2-carboxamide",Cc1ccccc1NC(=O)C2=Cc3ccccc3C(=N/Nc4cc(Cl)c(Cl)cc4Cl)\C2=O,-7.69430966,484.77,6.37622,130.8664,32,4,2,8,4,160,3,0,1,4,70.56,True
A-5584,N-(4-chlorophenyl)-2-[(4-methyl-2-nitrophenyl)diazenyl]-3-oxobutanamide,CC(=O)C(N=Nc1ccc(C)cc1[N+]([O-])=O)C(=O)Nc2ccc(Cl)cc2,-7.6052980935,374.784,4.23662,96.9001,26,6,1,9,6,134,2,0,0,2,114.03,True
A-5600,"4-({5-[(4-carbamoylphenyl)carbamoyl]-2-methoxyphenyl}diazenyl)-N-(5-chloro-2,4-dimethoxyphenyl)-3-hydroxy-2-naphthamide",COc1cc(OC)c(NC(=O)C2=Cc3ccccc3C(=N/Nc4cc(ccc4OC)C(=O)Nc5ccc(cc5)C(N)=O)\C2=O)cc1Cl,-7.8662401992,654.079,5.138,178.678499999999,47,9,4,13,10,238,4,0,1,5,170.44,True
A-5601,"N-(4-chloro-2,5-dimethoxyphenyl)-3-hydroxy-4-[(E)-2-[2-methoxy-5-(phenylcarbamoyl)phenyl]diazen-1-yl]naphthalene-2-carboxamide",COc1ccc(cc1N\N=C2/C(=O)C(=Cc3ccccc23)C(=O)Nc4cc(OC)c(Cl)cc4OC)C(=O)Nc5ccccc5,-7.8465603387,611.054,6.0391,170.160599999999,44,8,3,11,9,222,4,0,1,5,127.35,True
A-5603,"2-[(E)-2-(2-methoxyphenyl)diazen-1-yl]-3-oxo-N-(2-oxo-2,3-dihydro-1H-1,3-benzodiazol-5-yl)butanamide",COc1ccccc1N=NC(C(C)=O)C(=O)Nc2ccc3NC(=O)Nc3c2,-7.6305993261,367.365,2.54479999999999,99.5281,27,6,3,9,6,138,3,0,0,3,128.769999999999,True
A-5606,"N-(4-chloro-2,5-dimethoxyphenyl)-2-[(E)-2-(2-chloro-4-{3-chloro-4-[(E)-2-{1-[(4-chloro-2,5-dimethoxyphenyl)carbamoyl]-2-oxopropyl}diazen-1-yl]phenyl}phenyl)diazen-1-yl]-3-oxobutanamide",COc1cc(NC(=O)C(N=Nc2ccc(cc2Cl)c3ccc(N=NC(C(C)=O)C(=O)Nc4cc(OC)c(Cl)cc4OC)c(Cl)c3)C(C)=O)c(OC)cc1Cl,-8.0045326037,818.498,9.36159999999999,206.239399999999,54,12,2,18,15,282,4,0,0,4,178.699999999999,True
A-5607,"5-methyl-2-phenyl-4-(phenyldiazenyl)-2,4-dihydro-3H-pyrazol-3-one",CC1=NN(c2ccccc2)C(=O)C1N=Nc3ccccc3,-7.5414466266,278.315,3.5616,81.783,21,4,0,5,3,104,2,0,1,3,57.39,True
A-5621,"N-(5-chloro-2,4-dimethoxyphenyl)-4-[(E)-2-[5-(diethylsulfamoyl)-2-methoxyphenyl]diazen-1-yl]-3-hydroxynaphthalene-2-carboxamide",CCN(CC)[S](=O)(=O)c1ccc(OC)c(N\N=C2\C(=O)C(=Cc3ccccc23)C(=O)Nc4cc(Cl)c(OC)cc4OC)c1,-7.9052553562,627.119,4.8173,165.872199999999,43,9,2,13,11,226,3,0,1,4,135.63,True
A-5623,2-[(E)-2-(4-chloro-2-nitrophenyl)diazen-1-yl]-N-(2-chlorophenyl)-3-oxobutanamide,CC(=O)C(N=Nc1ccc(Cl)cc1[N+]([O-])=O)C(=O)Nc2ccccc2Cl,-7.72175787039999,395.202,4.5816,97.1730999999999,26,6,1,10,6,134,2,0,0,2,114.03,True
A-5624,"4-{[2,5-dimethoxy-4-(methylsulfamoyl)phenyl]diazenyl}-3-hydroxy-N-(2-oxo-2,3-dihydro-1H-benzimidazol-5-yl)-2-naphthamide",CN[S](=O)(=O)c1cc(OC)c(N\N=C2/C(=O)C(=Cc3ccccc23)C(=O)Nc4ccc5NC(=O)Nc5c4)cc1OC,-7.8916361395,576.591,2.20249999999999,152.926299999999,41,9,5,14,8,210,4,0,1,5,183.839999999999,True
A-5663,"1-ethyl-6-hydroxy-4-methyl-5-[(E)-2-(2-nitrophenyl)diazen-1-yl]-2-oxo-1,2-dihydropyridine-3-carbonitrile",CCN1C(=O)C(=N/Nc2ccccc2[N+]([O-])=O)\C(=C(C#N)C1=O)C,-6.815976001,327.3,1.59148,84.8611,24,7,1,9,4,122,1,0,1,2,128.7,True