ID,Name,SMILES,LogS,MolWt,MolLogP,MolMR,HeavyAtomCount,NumHAcceptors,NumHDonors,NumHeteroatoms,NumRotatableBonds,NumValenceElectrons,NumAromaticRings,NumSaturatedRings,NumAliphaticRings,RingCount,TPSA,IsAmide
B-2246,"salicylanilide, 4'-chloro-5-nitro-",Oc1ccc(cc1C(=O)Nc2ccc(Cl)cc2)[N+]([O-])=O,-5.122,292.678,3.2061,74.1664,20,4,2,7,3,102,2,0,0,2,92.47,True
B-2247,"salicylanilide, 4'-chloro-3-nitro-",Oc1c(cccc1[N+]([O-])=O)C(=O)Nc2ccc(Cl)cc2,-4.5452,292.678,3.2061,74.1664,20,4,2,7,3,102,2,0,0,2,92.47,True
B-2248,"alanine, n-(2-bromo-3-methylbutyryl)-, dl-",CC(C)C(Br)C(=O)NC(C)C(O)=O,-0.4825,252.108,0.9952,52.7935,13,2,2,5,4,76,0,0,0,0,66.4,True
B-2255,"l-serine, n-l-seryl-",NC(CO)C(=O)NC(CO)C(O)=O,-0.5847,192.171,-3.13229999999999,41.7135,13,5,5,7,5,76,0,0,0,0,132.88,True
B-2257,"2-pyrrolidinone, 5-methyl-1-phenyl-",CC1CCC(=O)N1c2ccccc2,-0.8457,175.231,2.2019,52.624,13,1,0,2,1,68,1,1,1,2,20.31,True
B-2275,"acetamide, n,n'-(phenylmethylene)bis-",CC(=O)NC(NC(C)=O)c1ccccc1,-1.3144,206.245,0.957399999999999,56.8164,15,2,2,4,3,80,1,0,0,1,58.2,True
B-2277,azodrin,CNC(=O)\C=C(/C)O[P](=O)(OC)OC,0.6514,223.164999999999,1.05369999999999,50.5332,14,5,1,7,5,82,0,0,0,0,73.86,True
B-2292,"acetamide, n-acetyl-n-(4-ethoxyphenyl)-",CCOc1ccc(cc1)N(C(C)=O)C(C)=O,-1.94699999999999,221.255999999999,1.98469999999999,61.452,16,3,0,4,3,86,1,0,0,1,46.61,True
B-2298,"butanediamide, n,n,n',n'-tetramethyl-",CN(C)C(=O)CCC(=O)N(C)C,0.5035,172.227999999999,-0.0569999999999999,46.622,12,2,0,4,3,70,0,0,0,0,40.62,True
B-2300,"2,5-piperazinedione, 1,4-bis(hydroxymethyl)-",OCN1CC(=O)N(CO)CC1=O,-0.4168,174.155999999999,-2.44319999999999,37.5976,12,4,2,6,2,68,0,1,1,1,81.08,True
B-2301,"barbituric acid, 5-ipr",CC(C)C1C(=O)NC(=O)NC1=O,-1.4556,170.167999999999,-0.3754,40.0094,12,3,2,5,1,66,0,1,1,1,75.27,True
B-2303,n-methyl-n-nitrosoacetamide,CN(N=O)C(C)=O,-0.7684,102.092999999999,0.146099999999999,24.2389999999999,7,3,0,4,1,40,0,0,0,0,49.74,True
B-2313,azacyclotetradecan-2-one,O=C1CCCCCCCCCCCCN1,-2.626,211.348999999999,3.4073,63.7967,15,1,1,2,0,88,0,1,1,1,29.1,True
B-2320,"2-furancarboxamide, n-hydroxy-n-phenyl-",ON(C(=O)c1occc1)c2ccccc2,-3.194,203.197,2.3156,53.746,15,3,1,4,2,76,2,0,0,2,53.68,True
B-2325,"dl-norleucine, n-acetyl-",CCCCC(NC(C)=O)C(O)=O,-0.6823,173.212,0.7659,44.7655,12,2,2,4,5,70,0,0,0,0,66.4,True
B-2329,pretilchlor,CCCOCCN(C(=O)CCl)c1c(CC)cccc1CC,-3.795,311.853,3.8098,89.381,21,2,0,4,9,118,1,0,0,1,29.54,True
B-2349,"2,2-dibromo-2-cyanoacetamide",NC(=O)C(Br)(Br)C#N,-1.2075,241.869999999999,0.48138,35.3923999999999,8,2,1,5,1,44,0,0,0,0,66.88,True
B-2350,glyburide,COc1ccc(Cl)cc1C(=O)NCCc2ccc(cc2)[S](=O)(=O)NC(=O)NC3CCCCC3,-5.0917,494.013,3.6417,126.2094,33,5,3,10,8,178,2,1,1,3,113.6,True
B-2354,"l-tyrosine, n-acetyl-3,5-dibromo-",CC(=O)N[C@@H](Cc1cc(Br)c(O)c(Br)c1)C(O)=O,-2.183,381.02,2.049,72.4513,18,3,3,7,4,98,1,0,0,1,86.63,True
B-2356,"3-pyridinecarboxamide, n-cyclohexyl-",O=C(NC1CCCCC1)c2cccnc2,-2.319,204.273,2.1441,58.5762,15,2,1,3,2,80,1,1,1,2,41.99,True
B-2371,disperse blue 79,CCOc1cc(N=Nc2cc(cc(c2Br)[N+]([O-])=O)[N+]([O-])=O)c(NC(C)=O)cc1N(CCOC(C)=O)CCOC(C)=O,-8.8336,639.416,4.9706,149.020499999999,41,13,1,17,14,220,2,0,0,2,205.17,True
B-2379,"1,4-benzenedicarboxamide, n,n,n',n'-tetramethyl-",CN(C)C(=O)c1ccc(cc1)C(=O)N(C)C,0.2656,220.271999999999,1.0902,62.477,16,2,0,4,2,86,1,0,0,1,40.62,True
B-2380,"3-pyridinecarboxamide, n-2-pyridinyl-",O=C(Nc1ccccn1)c2cccnc2,-2.9771,199.213,1.72889999999999,56.4272,15,3,1,4,2,74,2,0,0,2,54.88,True
B-2381,phosphamidon,CCN(CC)C(=O)\C(Cl)=C(/C)O[P](=O)(OC)OC,0.5233,299.691,2.7426,69.1905,18,5,0,8,7,106,0,0,0,0,65.07,True
B-2394,"l-cysteine, n-acetyl-s-(3,4-dichlorophenyl)-",CC(=O)N[C@@H](CSc1ccc(Cl)c(Cl)c1)C(O)=O,-2.8868,308.186,2.6748,72.4265,18,3,2,7,5,98,1,0,0,1,66.4,True
B-2411,azidamfenicol,OC[C@@H](NC(=O)CN=[N+]=[N-])[C@H](O)c1ccc(cc1)[N+]([O-])=O,-1.1692,295.255,0.415599999999999,71.0857,21,6,3,10,7,112,1,0,0,1,161.459999999999,True
B-2415,"barbituric acid, 5,5-di-2-butenyl-",C/C=C/CC1(C\C=C\C)C(=O)NC(=O)NC1=O,-2.1973,236.271,1.27119999999999,62.9764,17,3,2,5,4,92,0,1,1,1,75.27,True
B-2431,Valylglycine,CC(C)C(N)C(=O)NCC(O)=O,0.4579,174.2,-0.829499999999999,43.4589,12,3,3,5,4,70,0,0,0,0,92.42,True
B-2432,"1,3-benzenedicarboxamide, n,n,n',n'-tetramethyl-",CN(C)C(=O)c1cccc(c1)C(=O)N(C)C,0.487,220.271999999999,1.0902,62.477,16,2,0,4,2,86,1,0,0,1,40.62,True
B-2438,"benzamide, 2-(2-propenyloxy)-",NC(=O)c1ccccc1OCC=C,-2.2273,177.202999999999,1.3503,50.6519,13,2,1,3,4,68,1,0,0,1,52.32,True
B-2441,"2,5-piperazinedione, 3-(1-methylethyl)-",CC(C)C1NC(=O)CNC1=O,-0.8926,156.184999999999,-0.743,39.7784,11,2,2,4,1,62,0,1,1,1,58.2,True
B-2449,"glutaric acid, 3-hydroxy-3-(phenylcarbamoyl)-",OC(=O)CC(O)(CC(O)=O)C(=O)Nc1ccccc1,-0.4874,267.237,0.305599999999999,64.5271,19,4,4,7,6,102,1,0,0,1,123.93,True
B-2456,"n,n-diethyl-2-(1-naphthalenyloxy)propanamide",CCN(CC)C(=O)C(C)Oc1cccc2ccccc12,-3.5702,271.36,3.4755,81.966,20,2,0,3,5,106,2,0,0,2,29.54,True
B-2458,"benzamide, 2-iodo-n-phenyl",Ic1ccccc1C(=O)Nc2ccccc2,-4.2084,323.133,3.5435,73.5542,16,1,1,3,2,80,2,0,0,2,29.1,True
B-2473,carbetamide,CCNC(=O)[C@H](C)OC(=O)Nc1ccccc1,-1.8293,236.271,1.75969999999999,64.6914,17,3,2,5,4,92,1,0,0,1,67.4299999999999,True
B-2480,"l-glutamic acid, n-l-leucyl-",CC(C)C[C@H](N)C(=O)N[C@@H](CCC(O)=O)C(O)=O,-0.8969,260.289999999999,-0.205999999999998,63.8667,18,4,4,7,8,104,0,0,0,0,129.72,True
B-2481,"butanamide, n-methyl-n-nitroso-",CCCC(=O)N(C)N=O,-1.5347,130.147,0.9263,33.4729999999999,9,3,0,4,3,52,0,0,0,0,49.74,True
B-2483,"2-propenamide, 2-chloro-",NC(=O)C(Cl)=C,-0.2104,105.524,0.2242,24.1873999999999,6,1,1,3,1,34,0,0,0,0,43.09,True
B-2485,"hydantoin, 5-methyl-5-(2-piperidinoethyl)-",CC1(CCN2CCCCC2)NC(=O)NC1=O,-0.8213,225.292,0.4605,59.9874,16,3,2,5,3,90,0,2,2,2,61.44,True
B-2487,"2-thiazolecarboxylic acid, hydrazide",NNC(=O)c1sccn1,-0.6787,143.171,-0.2534,33.7676,9,4,2,5,1,48,1,0,0,1,68.0099999999999,True
B-2494,"benzamide, 2,4-dichloro-n-hydroxy-n-phenyl-",ON(c1ccccc1)C(=O)c2ccc(Cl)cc2Cl,-3.6723,282.126,4.0294,71.5,18,2,1,5,2,92,2,0,0,2,40.54,True
B-2496,"barbituric acid, 5-bromo-5-isopropyl-",CC(C)C1(Br)C(=O)NC(=O)NC1=O,-2.2088,249.064,0.1421,48.1774,13,3,2,6,1,72,0,1,1,1,75.27,True
B-2498,"barbituric acid,5,5-dibutyl-",CCCCC1(CCCC)C(=O)NC(=O)NC1=O,-2.8756,240.303,1.71919999999999,63.1644,17,3,2,5,6,96,0,1,1,1,75.27,True
B-2503,"glycine, n-[n-(n-carbamoylglycyl)glycyl]-",NC(=O)NCC(=O)NCC(=O)NCC(O)=O,-1.3505,232.195999999999,-3.02829999999999,51.2413,16,4,5,9,6,90,0,0,0,0,150.619999999999,True
B-2506,"glycine, n-[n-(aminocarbonyl)glycyl]-",NC(=O)NCC(=O)NCC(O)=O,-0.8996,175.143999999999,-2.1445,38.2316,12,3,4,7,4,68,0,0,0,0,121.52,True
B-2512,metolazone,CC1Nc2cc(Cl)c(cc2C(=O)N1c3ccccc3C)[S](N)(=O)=O,-3.783,365.842,2.71411999999999,93.8984,24,4,2,8,2,126,2,0,1,3,92.5,True
B-2516,amicetin,CC1OC(CCC1OC2OC(C)C(C(O)C2O)N(C)C)N3C=CC(=NC3=O)NC(=O)c4ccc(NC(=O)C(C)(N)CO)cc4,-2.4904,618.688,-0.376699999999994,158.714699999999,44,13,6,15,9,242,2,2,2,4,210.73,True
B-2551,"acetamide, n- 4- (2-pyridinylamino)sulfonyl phen",CC(=O)Nc1ccc(cc1)[S](=O)(=O)Nc2ccccn2,-3.7162,291.332,1.84079999999999,75.7912,20,4,2,7,4,104,2,0,0,2,88.16,True
B-2554,"nicotinamide, n-(6-methoxy-8-quinolyl)-",COc1cc(NC(=O)c2cccnc2)c3ncccc3c1,-4.4461,279.299,2.8907,80.4852,21,4,1,5,3,104,3,0,0,3,64.11,True
B-2555,polyoxin b,N[C@@H]([C@H](O)[C@@H](O)COC(N)=O)C(=O)N[C@@H]([C@H]1O[C@H](C(O)C1O)N2C=C(CO)C(=O)NC2=O)C(O)=O,0.2946,507.409,-6.63809999999999,108.26,35,14,10,18,10,196,1,1,1,2,309.979999999999,True
B-2565,"d-leucine, n-acetyl-",CC(C)C[C@@H](NC(C)=O)C(O)=O,-1.3301,173.212,0.6218,44.6955,12,2,2,4,4,70,0,0,0,0,66.4,True
B-2584,"acetamide, n-(4-propoxyphenyl)-",CCCOc1ccc(NC(C)=O)cc1,-3.0557,193.245999999999,2.4338,56.5317,14,2,1,3,4,76,1,0,0,1,38.33,True
B-2599,prynachlor,CC(C#C)N(C(=O)CCl)c1ccccc1,-2.6468,221.687,2.2801,62.943,15,1,0,3,3,78,1,0,0,1,20.31,True
B-2606,"2h-1,4-benzoxazin-3(4h)-one, 4-methyl-",CN1C(=O)COc2ccccc12,-2.1445,163.176,1.04179999999999,45.347,12,2,0,3,0,62,1,0,1,2,29.54,True
B-2613,benzoylprop ethyl,CCOC(=O)C(C)N(C(=O)c1ccccc1)c2ccc(Cl)c(Cl)c2,-4.2627,366.244,4.5918,95.8085,24,3,0,6,5,126,2,0,0,2,46.61,True
B-2615,"acetamide, n-(4-ethoxyphenyl)-2-hydroxy-",CCOc1ccc(NC(=O)CO)cc1,-2.1058,195.218,1.0161,53.3265,14,3,2,4,4,76,1,0,0,1,58.56,True
B-2627,oxamyl,CNC(=O)O\N=C(SC)\C(=O)N(C)C,0.1062,219.266,0.107099999999999,55.1847,14,5,1,7,1,80,0,0,0,0,70.9999999999999,True
B-2641,pronamide,CC(C)(NC(=O)c1cc(Cl)cc(Cl)c1)C#C,-4.2324,256.131999999999,3.135,66.8402,16,1,1,4,2,84,1,0,0,1,29.1,True
B-2644,2-methyl-4-bromoacetanilide,CC(=O)Nc1ccc(Br)cc1C,-1.756,228.088999999999,2.71592,53.1827,12,1,1,3,1,64,1,0,0,1,29.1,True
B-2645,"acetamide-2-chloro-n-(2,6-dimethylphenyl)-n-((2-",CC(C)COCN(C(=O)CCl)c1c(C)cccc1C,-3.6822,283.799,3.50534,79.779,19,2,0,4,6,106,1,0,0,1,29.54,True
B-2646,fenfuram,Cc1occc1C(=O)Nc2ccccc2,-3.3037,201.225,2.84032,57.8402,15,2,1,3,2,76,2,0,0,2,42.24,True
B-2687,"3-pyridinecarboxamide, n-[(phenylamino)carbonyl]",O=C(NC(=O)c1cccnc1)Nc2ccccc2,-3.3825,241.25,2.0435,67.1639,18,3,2,5,2,90,2,0,0,2,71.09,True
B-2695,quinonamid,ClC(Cl)C(=O)NC1=C(Cl)C(=O)c2ccccc2C1=O,-5.0261,318.543,2.4359,71.6187,19,3,1,7,2,98,1,0,1,2,63.24,True
B-2712,benzoximate,CCN(OC(=O)c1ccccc1)C(=O)c2c(OC)ccc(Cl)c2OC,-4.0837,363.797,3.5913,93.124,25,5,0,7,5,132,2,0,0,2,65.07,True
B-2713,atenolol,CC(C)NCC(O)COc1ccc(CC(N)=O)cc1,-1.3016,266.340999999999,0.4521,73.9809,19,4,3,5,8,106,1,0,0,1,84.5799999999999,True
B-2714,"propanediamide, 2,2-diethyl-",CCC(CC)(C(N)=O)C(N)=O,-1.1992,158.200999999999,-0.2366,41.4038,11,2,2,4,4,64,0,0,0,0,86.18,True
B-2715,Mecarphon,COC(=O)N(C)C(=O)CS[P](C)(=S)OC,-1.9563,271.3,1.5301,64.851,15,6,0,8,4,88,0,0,0,0,55.84,True
B-2718,"1-naphthalenecarboxamide, n-hydroxy-n-phenyl-",ON(c1ccccc1)C(=O)c2cccc3ccccc23,-3.9433,263.296,3.8758,78.986,20,2,1,3,2,98,3,0,0,3,40.54,True
B-2719,"benzamide, n-hydroxy-n-1-naphthalenyl-",ON(C(=O)c1ccccc1)c2cccc3ccccc23,-3.3065,263.296,3.8758,78.986,20,2,1,3,2,98,3,0,0,3,40.54,True
B-2720,"benzamide, 3,5-dinitro-n-phenyl-n-hydroxy-",ON(c1ccccc1)C(=O)c2cc(cc(c2)[N+]([O-])=O)[N+]([O-])=O,-3.6367,303.23,2.539,74.7888,22,6,1,9,4,112,2,0,0,2,126.82,True
B-2723,"benzamide, n-[2-(1h-imidazol-4-yl)ethyl]-",O=C(NCCc1c[nH]cn1)c2ccccc2,-0.634,215.256,1.38219999999999,61.0669,16,2,2,4,4,82,2,0,0,2,57.78,True
B-2744,metrizamide,CN(C(C)=O)c1c(I)c(NC(C)=O)c(I)c(C(=O)NC2[C@@H](O)OC(CO)[C@@H](O)C2O)c1I,-0.1982,789.099,-0.0288000000000004,139.214099999999,32,8,6,14,5,178,1,1,1,2,168.66,True
B-2751,divicine,NC1N=C(N)NC(=O)C1=O,-1.6978,142.118,-2.7152,32.7475,10,5,3,6,0,54,0,0,1,1,110.57,True
B-2757,"succinamic acid, 3-amino-2-hydroxy-",NC(C(O)C(O)=O)C(N)=O,-1.1494,148.117999999999,-2.7555,30.8124,10,4,4,6,3,58,0,0,0,0,126.64,True
B-2763,procymidone,CC12CC1(C)C(=O)N(C2=O)c3cc(Cl)cc(Cl)c3,-4.8003,284.142,3.2829,69.786,18,2,0,5,1,94,1,2,2,3,37.38,True
B-2767,2-ethylacetanilide,CCc1ccccc1NC(C)=O,-1.5906,163.219999999999,2.2074,50.1237,12,1,1,2,2,64,1,0,0,1,29.1,True
B-2796,tebutam,CC(C)N(Cc1ccccc1)C(=O)C(C)(C)C,-2.4704,233.354999999999,3.4697,71.583,17,1,0,2,3,94,1,0,0,1,20.31,True
B-2797,"butanoic acid, 4-(benzoylamino)-",OC(=O)CCCNC(=O)c1ccccc1,-1.2025,207.229,1.2812,55.645,15,2,2,4,5,80,1,0,0,1,66.4,True
B-2803,bilanafos,C[C@H](NC(=O)[C@H](C)NC(=O)[C@@H](N)CC[P](C)(O)=O)C(O)=O,0.4904,323.286,-1.30199999999999,76.0539,21,5,5,10,8,122,0,0,0,0,158.82,True
B-2816,rovral (iprodione),CC(C)NC(=O)N1CC(=O)N(C1=O)c2cc(Cl)cc(Cl)c2,-4.3757,330.171,2.88,79.7177,21,3,1,8,2,112,1,1,1,2,69.72,True
B-2818,"benzamide, 2-amino-3,5-dichloro-",NC(=O)c1cc(Cl)cc(Cl)c1N,-2.0814,205.043999999999,1.67449999999999,49.3923,12,2,2,5,1,64,1,0,0,1,69.11,True
B-2819,ribavirin,NC(=O)c1ncn(n1)[C@@H]2O[C@H](CO)[C@@H](O)[C@H]2O,-0.2355,244.207,-3.01149999999999,51.5493,17,8,4,9,3,94,1,1,1,2,143.72,True
B-2820,labetalol,CC(CCc1ccccc1)NCC(O)c2ccc(O)c(c2)C(N)=O,-3.4482,328.412,2.13539999999999,93.8122,24,4,4,5,8,128,2,0,0,2,95.5799999999999,True
B-2824,"benzamide, n-hydroxy-2-iodo-n-phenyl-",ON(c1ccccc1)C(=O)c2ccccc2I,-3.5304,339.131999999999,3.3272,74.197,17,2,1,4,2,86,2,0,0,2,40.54,True
B-2825,amikacin,NCC[C@H](O)C(=O)N[C@@H]1C[C@H](N)[C@@H](O[C@H]2O[C@H](CN)[C@@H](O)[C@H](O)[C@H]2O)[C@H](O)[C@H]1O[C@H]3O[C@H](CO)[C@@H](O)[C@H](N)[C@H]3O,-0.5004,585.608,-8.42420000000001,131.4257,40,17,13,18,10,234,0,3,3,3,331.939999999999,True
B-2829,"acetamide, 2,2-dichloro-n,n-di-2-propenyl-",ClC(Cl)C(=O)N(CC=C)CC=C,-1.6193,208.087999999999,1.9907,52.468,12,1,0,4,5,68,0,0,0,0,20.31,True
B-2836,"d-glutamine, n2-l-leucyl-",CC(C)C[C@H](N)C(=O)N[C@H](CCC(N)=O)C(O)=O,-1.5687,259.306,-0.805299999999998,65.4253,18,4,4,7,8,104,0,0,0,0,135.51,True
B-2837,biocozamycin,CC(O)(CO)C(O)[C@@]12NC(=O)[C@@](O)(NC1=O)C(=C)CCO2,-0.1971,302.283,-3.30199999999999,67.3916,21,7,6,9,3,118,0,3,3,3,148.35,True
B-2853,Diethatyl-ethyl,CCOC(=O)CN(C(=O)CCl)c1c(CC)cccc1CC,-3.4727,311.809,2.9463,84.904,21,3,0,5,7,116,1,0,0,1,46.61,True
B-2865,"acetamide, 2-cyano-n-methyl-n- (methylamino)carb",CNC(=O)N(C)C(=O)CC#N,0.1709,155.156999999999,-0.30212,37.4557,11,3,1,5,1,60,0,0,0,0,73.2,True
B-2867,"acetamide, 2-(acetylamino)-n-phenyl-",CC(=O)NCC(=O)Nc1ccccc1,-1.5678,192.218,0.761199999999999,53.7554,14,2,2,4,3,74,1,0,0,1,58.2,True
B-2880,sparticide,Fc1ccc(cc1)N2C(=O)C(=C(Cl)C2=O)Cl,-4.6442,260.051,2.3881,57.625,16,2,0,6,1,82,1,0,1,2,37.38,True
B-2888,"acetamide, n-(4-ethoxy-2-methylphenyl)-",CCOc1ccc(NC(C)=O)c(C)c1,-1.839,193.245999999999,2.35212,56.6517,14,2,1,3,3,76,1,0,0,1,38.33,True
B-2902,"propanamide, 2-oxo-n-phenyl-",CC(=O)C(=O)Nc1ccccc1,-1.3676,163.176,1.2141,45.7527,12,2,1,3,2,62,1,0,0,1,46.17,True
B-2912,azacyclohexadecan-2-one,O=C1CCCCCCCCCCCCCCN1,-2.87399999999999,239.402999999999,4.1875,73.0307,17,1,1,2,0,100,0,1,1,1,29.1,True
B-2914,"hexanamide, n,n'-1,2-ethanediylbis-",CCCCCC(=O)NCCNC(=O)CCCCC,-3.1079,256.389999999999,2.3794,74.3034,18,2,2,4,11,106,0,0,0,0,58.2,True
B-2917,"1h-indole-2,3-dicarboxamide, 1-methyl-",Cn1c2ccccc2c(C(N)=O)c1C(N)=O,-1.8184,217.227999999999,0.3761,59.9548,16,3,2,5,2,82,2,0,0,2,91.1099999999999,True
B-2920,metolachlor,CCc1cccc(C)c1N(C(C)COC)C(=O)CCl,-2.7287,283.798999999999,3.16412,80.101,19,2,0,4,6,106,1,0,0,1,29.54,True
B-2935,1-(3-Chlorophthalimido)cyclohexanecarboxamide,NC(=O)C1(CCCCC1)N2C(=O)c3cccc(Cl)c3C2=O,-4.0097,306.749,2.1242,76.9624,21,3,1,6,2,110,1,1,2,3,80.47,True
B-2937,"5-ethyl-5-methyl-2,4-oxazolidinedione",CCC1(C)OC(=O)NC1=O,0.0203,143.141999999999,0.4215,33.3196999999999,10,3,1,4,1,56,0,1,1,1,55.4,True
B-2938,naproanilide,CC(Oc1ccc2ccccc2c1)C(=O)Nc3ccccc3,-5.5894,291.349999999999,4.2458,89.1097,22,2,1,3,4,110,3,0,0,3,38.33,True
B-2960,flamprop-isopropyl,CC(C)OC(=O)C(C)N(C(=O)c1ccccc1)c2ccc(F)c(Cl)c2,-4.3056,363.816,4.466,95.3515,25,3,0,6,5,132,2,0,0,2,46.61,True
B-2961,flamprop-methyl,COC(=O)C(C)N(C(=O)c1ccccc1)c2ccc(F)c(Cl)c2,-3.98199999999999,335.762,3.6874,86.1395,23,3,0,6,4,120,2,0,0,2,46.61,True
B-2969,ibuproxam,CC(C)Cc1ccc(cc1)C(C)C(=O)NO,-3.04399999999999,221.299999999999,2.49399999999999,63.3282,16,2,2,3,4,88,1,0,0,1,49.33,True
B-2971,mefluidide,CC(=O)Nc1cc(N[S](=O)(=O)C(F)(F)F)c(C)cc1C,-3.2365,310.297,2.52334,68.8172,20,3,2,9,3,112,1,0,0,1,75.27,True
B-2975,cefaclor (panoral),N[C@@H](C(=O)N[C@H]1[C@H]2SCC(=C(N2C1=O)C(O)=O)Cl)c3ccccc3,-1.5656,367.814,0.6213,88.9079,24,5,3,9,4,126,1,1,2,3,112.73,True
B-2976,"benzamide, n-(2-amino-1,1-dimethyl-2-oxoethyl)-",CC(C)(NC(=O)c1ccccc1)C(N)=O,-1.6154,206.244999999999,0.6803,57.1816,15,2,2,4,3,80,1,0,0,1,72.19,True
B-2979,"pentanamide, n,n'-1,2-ethanediylbis-",CCCCC(=O)NCCNC(=O)CCCC,-1.8145,228.335999999999,1.59919999999999,65.0694,16,2,2,4,9,94,0,0,0,0,58.2,True
B-2981,"2-pyrrolidinone, 1-nitroso-",O=NN1CCCC1=O,0.0523,114.104,0.2902,26.7419999999999,8,3,0,4,1,44,0,1,1,1,49.74,True
B-2982,"d-alloisoleucine, n-acetyl-",CC[C@H](C)[C@@H](NC(C)=O)C(O)=O,-0.5912,173.212,0.6218,44.6955,12,2,2,4,4,70,0,0,0,0,66.4,True
B-2990,praziquantel,O=C1CN(CC2N1CCc3ccccc23)C(=O)C4CCCCC4,-2.8927,312.413,2.5349,87.755,23,2,0,4,1,122,1,2,3,4,40.62,True
B-3004,mepronil,CC(C)Oc1cccc(NC(=O)c2ccccc2C)c1,-4.3265,269.344,4.03452,81.3382,20,2,1,3,4,104,2,0,0,2,38.33,True
B-3006,sufentanil,CCC(=O)N(c1ccccc1)C2(CCN(CCc3sccc3)CC2)COC,-3.7064,386.561,4.2148,112.523,27,4,0,5,8,146,2,1,1,3,32.78,True
B-3022,pyroquilon,O=C1CCc2cccc3CCN1c23,-1.6365,173.214999999999,1.5219,50.82,13,1,0,2,0,66,1,0,2,3,20.31,True
B-3025,"acetamide, n-[2-(benzoyloxy)ethyl]-n-methyl-",CN(CCOC(=O)c1ccccc1)C(C)=O,-0.8494,221.256,1.32169999999999,60.0355,16,3,0,4,4,86,1,0,0,1,46.61,True
B-3026,furalaxyl,COC(=O)C(C)N(C(=O)c1occc1)c2c(C)cccc2C,-3.1173,301.342,3.10474,82.9115,22,4,0,5,4,116,2,0,0,2,59.75,True
B-3031,"2,4(3h,5h)-pyrimidinedione, 6-amino-5,5-diethyl-",CCC1(CC)C(=NC(=O)NC1=O)N,-1.3967,183.210999999999,0.3998,48.1761,13,3,2,5,2,72,0,0,1,1,84.55,True
B-3035,flamprop,CC(N(c1ccc(F)c(Cl)c1)C(=O)c2ccccc2)C(O)=O,-4.2474,321.735,3.599,81.7593,22,2,1,6,4,114,2,0,0,2,57.61,True
B-3036,ofurace,Cc1cccc(C)c1N(C2CCOC2=O)C(=O)CCl,-3.2855,281.738999999999,2.19074,73.486,19,3,0,5,3,102,1,1,1,2,46.61,True
B-3051,iopamidol,C[C@H](O)C(=O)Nc1c(I)c(C(=O)NC(CO)CO)c(I)c(C(=O)NC(CO)CO)c1I,-0.7443,777.088,-1.0143,135.755099999999,31,8,8,14,10,174,1,0,0,1,188.45,True
B-3063,"glycine, n-[n-(2-bromo-1-oxopropyl)glycyl]-, (.+",CC(Br)C(=O)NCC(=O)NCC(O)=O,-0.9642,267.079,-0.913199999999999,52.0442,14,3,3,7,5,80,0,0,0,0,95.5,True
B-3073,"benzamide, 2,5-dihydroxy-n-(2-hydroxyethyl)-",OCCNC(=O)c1cc(O)ccc1O,-0.5436,197.19,-0.180099999999999,49.1906,14,4,4,5,3,76,1,0,0,1,89.79,True
B-3085,"pentanamide, 2-bromo-2-propyl-",CCCC(Br)(CCC)C(N)=O,-1.8281,222.125999999999,2.20559999999999,50.6684,11,1,1,3,5,66,0,0,0,0,43.09,True
B-3086,flamprop-m-methyl,COC(=O)[C@@H](C)N(C(=O)c1ccccc1)c2ccc(F)c(Cl)c2,-4.3219,335.762,3.6874,86.1395,23,3,0,6,4,120,2,0,0,2,46.61,True
B-3087,flamprop-m-isopropyl,CC(C)OC(=O)[C@@H](C)N(C(=O)c1ccccc1)c2ccc(F)c(Cl)c2,-4.4817,363.816,4.466,95.3515,25,3,0,6,5,132,2,0,0,2,46.61,True
B-3094,anilofos,CO[P](=S)(OC)SCC(=O)N(C(C)C)c1ccc(Cl)cc1,-4.4321,367.86,4.3319,94.835,21,5,0,8,7,118,1,0,0,1,38.77,True
B-3096,glycoursodeoxycholic acid,C[C@H](CCC(=O)NCC(O)=O)[C@H]1CCC2C3[C@@H](O)C[C@@H]4C[C@H](O)CC[C@]4(C)C3CC[C@]12C,-5.5225,449.632,3.5941,121.6571,32,4,4,6,6,182,0,4,4,4,106.86,True
B-3098,triflumuron,FC(F)(F)Oc1ccc(NC(=O)NC(=O)c2ccccc2Cl)cc1,-7.1568,358.703,4.2005,81.0619,24,3,2,9,3,126,2,0,0,2,67.43,True
B-3099,"acetamide, 2-(benzoyloxy)-",NC(=O)COC(=O)c1ccccc1,-1.6405,179.175,0.328699999999999,45.9189,13,3,1,4,3,68,1,0,0,1,69.39,True
B-3100,"acetamide, 2-(benzoyloxy)-n-ethyl-",CCNC(=O)COC(=O)c1ccccc1,-2.2373,207.229,0.979499999999999,55.4082,15,3,1,4,4,80,1,0,0,1,55.4,True
B-3101,"benzoic acid, 2-(diethylamino)-2-oxoethyl ester",CCN(CC)C(=O)COC(=O)c1ccccc1,-2.0706,235.283,1.71179999999999,64.6525,17,3,0,4,5,92,1,0,0,1,46.61,True
B-3103,"2,4(1h,3h)-pyrimidinedione, 5-aminodihydro-1,3-d",CN1C(=O)C(N)C(=S)N(C)C1=O,-1.117,187.224,-0.835099999999999,46.5024,12,4,1,6,0,66,0,1,1,1,66.64,True
B-3111,flutolanil,CC(C)Oc1cccc(NC(=O)c2ccccc2C(F)(F)F)c1,-4.6947,323.313999999999,4.7449,81.6032,23,2,1,6,4,122,2,0,0,2,38.33,True
B-3115,"pentanamide, n-(aminocarbonyl)-2-bromo-",CCCC(Br)C(=O)NC(N)=O,-1.4278,223.07,0.7449,45.3491,11,2,2,5,3,64,0,0,0,0,72.19,True
B-3119,metazachlor,Cc1cccc(C)c1N(Cn2cccn2)C(=O)CCl,-2.8102,277.755,2.72944,76.349,19,3,0,5,4,100,2,0,0,2,38.13,True
B-3149,"acetamide, n-acetyl-2-(benzoyloxy)-",CC(=O)NC(=O)COC(=O)c1ccccc1,-2.4003,221.212,0.506099999999999,55.5482,16,4,1,5,3,84,1,0,0,1,72.47,True
B-3156,cyprofuram,Clc1cccc(c1)N(C2CCOC2=O)C(=O)C3CC3,-2.6878,279.723,2.3985,71.026,19,3,0,5,3,100,1,2,2,3,46.61,True
B-3163,"benzoic acid, 2-[4,5-dihydro-4-methyl-4-(1-methy",COC(=O)c1cc(C)ccc1C2=NC(C)(C(C)C)C(=O)N2,-2.3262,288.347,2.07272,80.4412,21,4,1,5,3,112,1,0,1,2,67.7599999999999,True
B-3177,benalaxyl,COC(=O)C(C)N(C(=O)Cc1ccccc1)c2c(C)cccc2C,-3.9442,325.408,3.44064,95.026,24,3,0,4,5,126,2,0,0,2,46.61,True
B-3179,"propanediamide, 2-(hydroxyimino)-",NC(=O)C(=NO)C(N)=O,-0.0384,131.091,-2.2128,27.6103,9,4,3,6,2,50,0,0,0,0,118.77,True