ID,Name,SMILES,LogS,MolWt,MolLogP,MolMR,HeavyAtomCount,NumHAcceptors,NumHDonors,NumHeteroatoms,NumRotatableBonds,NumValenceElectrons,NumAromaticRings,NumSaturatedRings,NumAliphaticRings,RingCount,TPSA,IsAmide
A-5664,"4-chloro-N-(5-chloro-2-methylphenyl)-3-[(E)-2-{1-[(4-{2-[(E)-2-{2-chloro-5-[(5-chloro-2-methylphenyl)carbamoyl]phenyl}diazen-1-yl]-3-oxobutanamido}-2,5-dimethylphenyl)carbamoyl]-2-oxopropyl}diazen-1-yl]benzamide",CC(=O)C(N=Nc1cc(ccc1Cl)C(=O)Nc2cc(Cl)ccc2C)C(=O)Nc3cc(C)c(NC(=O)C(N=Nc4cc(ccc4Cl)C(=O)Nc5cc(Cl)ccc5C)C(C)=O)cc3C,-7.2632335384,916.649999999999,11.3984799999999,242.333799999999,62,10,4,18,14,318,5,0,0,5,199.98,True
A-5667,2-[(E)-2-(2-chloro-4-{3-chloro-4-[(E)-2-[2-oxo-1-(phenylcarbamoyl)propyl]diazen-1-yl]phenyl}phenyl)diazen-1-yl]-3-oxo-N-phenylbutanamide; 2-[(E)-2-(2-chloro-4-{3-chloro-4-[(E)-2-{1-[(4-methoxyphenyl)carbamoyl]-2-oxopropyl}diazen-1-yl]phenyl}phenyl)diazen-1-yl]-3-oxo-N-phenylbutanamide; 2-[(E)-2-(2-chloro-4-{3-chloro-4-[(E)-2-{1-[(4-methoxyphenyl)carbamoyl]-2-oxopropyl}diazen-1-yl]phenyl}phenyl)diazen-1-yl]-N-(4-methoxyphenyl)-3-oxobutanamide,COc1ccc(NC(=O)C(N=Nc2ccc(cc2Cl)c3ccc(N=NC(C(C)=O)C(=O)Nc4ccccc4)c(Cl)c3)C(C)=O)cc1.COc5ccc(NC(=O)C(N=Nc6ccc(cc6Cl)c7ccc(N=NC(C(C)=O)C(=O)Nc8ccc(OC)cc8)c(Cl)c7)C(C)=O)cc5.CC(=O)C(N=Nc9ccc(cc9Cl)c%10ccc(N=NC(C(C)=O)C(=O)Nc%11ccccc%11)c(Cl)c%10)C(=O)Nc%12ccccc%12,-8.5404809541,1978.58999999999,24.087,529.690200000001,138,27,6,39,36,702,12,0,0,12,453.03,True
A-5670,"4-[(E)-2-(2,5-dichlorophenyl)diazen-1-yl]-3-hydroxy-N-phenylnaphthalene-2-carboxamide",Clc1ccc(Cl)c(N\N=C2\C(=O)C(=Cc3ccccc23)C(=O)Nc4ccccc4)c1,-7.9073894624,436.298,5.4144,121.119399999999,30,4,2,7,4,148,3,0,1,4,70.56,True
A-5671,"2,2'-[(3,3'-dichlorobiphenyl-4,4'-diyl)didiazene-2,1-diyl]bis[N-(4-methylphenyl)-3-oxobutanamide]",CC(=O)C(N=Nc1ccc(cc1Cl)c2ccc(N=NC(C(C)=O)C(=O)Nc3ccc(C)cc3)c(Cl)c2)C(=O)Nc4ccc(C)cc4,-8.1019307222,657.558,8.63724,179.485399999999,46,8,2,12,11,234,4,0,0,4,141.779999999999,True
A-5695,"4-[(1,5-dihydro-3-methyl-5-oxo-1-phenyl-4H-pyrazol-4-ylidene)methyl]-2,4-dihydro-5-methyl-2-phenyl-3H-pyrazol-3-one",CC1=NN(c2ccccc2)C(=O)C1/C=C/3C(=NN(c4ccccc4)C3=O)C,-7.8822713548,358.401,3.3744,105.647,27,4,0,6,3,134,2,0,2,4,65.34,True
A-5696,3-hydroxy-4-[(E)-2-(2-methyl-4-nitrophenyl)diazen-1-yl]-N-(2-methylphenyl)naphthalene-2-carboxamide,Cc1ccccc1NC(=O)C2=Cc3ccccc3C(=N/Nc4ccc(cc4C)[N+]([O-])=O)/C2=O,-7.98114765679999,440.459,4.63264,127.2278,33,6,2,8,5,164,3,0,1,4,113.699999999999,True
A-5697,"4-[(E)-2-(2-chloro-4-{3-chloro-4-[(E)-2-(3-methyl-5-oxo-1-phenyl-4,5-dihydro-1H-pyrazol-4-yl)diazen-1-yl]phenyl}phenyl)diazen-1-yl]-3-methyl-1-phenyl-4,5-dihydro-1H-pyrazol-5-one",CC\1=NN(C(=O)C1=N/Nc2ccc(cc2Cl)c3ccc(N\N=C4/C(=NN(C4=O)c5ccccc5)C)c(Cl)c3)c6ccccc6,-8.1416267302,623.504,7.0416,178.087399999999,44,8,2,12,7,218,4,0,2,6,114.12,True
A-5698,"methyl 4-[(2,5-dichlorophenyl)carbamoyl]-2-({2-hydroxy-3-[(2-methoxyphenyl)carbamoyl]-1-naphthyl}diazenyl)benzoate",COC(=O)c1ccc(cc1N\N=C2/C(=O)C(=Cc3ccccc23)C(=O)Nc4ccccc4OC)C(=O)Nc5cc(Cl)ccc5Cl,-8.1750686223,643.483,6.4619,173.406099999999,45,8,3,12,8,226,4,0,1,5,135.19,True
A-5712,"2,6-di-tert-butyl-4-nonylphenol",[O-][N+](=O)c1ncn(CC(=O)Nc2cc(ccc2Cl)C(F)(F)F)n1,-5.96810676669999,349.656,2.4972,71.7601,23,6,1,12,4,122,2,0,0,2,102.95,True
A-5742,N-(5-chloro-2-methoxyphenyl)-3-hydroxy-4-[(E)-2-[2-methoxy-5-(phenylcarbamoyl)phenyl]diazen-1-yl]naphthalene-2-carboxamide,COc1ccc(cc1N\N=C2/C(=O)C(=Cc3ccccc23)C(=O)Nc4cc(Cl)ccc4OC)C(=O)Nc5ccccc5,-8.1844134651,581.028,6.0305,163.608599999999,42,7,3,10,8,210,4,0,1,5,118.12,True
A-5746,"4-[(E)-2-(2-chloro-4-{3-chloro-4-[(E)-2-[3-methyl-1-(4-methylphenyl)-5-oxo-4,5-dihydro-1H-pyrazol-4-yl]diazen-1-yl]phenyl}phenyl)diazen-1-yl]-3-methyl-1-(4-methylphenyl)-4,5-dihydro-1H-pyrazol-5-one",Cc1ccc(cc1)N2N=C(C)C(N=Nc3ccc(cc3Cl)c4ccc(N=NC5C(=NN(c6ccc(C)cc6)C5=O)C)c(Cl)c4)C2=O,-8.2698850372,651.558,9.02724,182.053999999999,46,8,0,12,7,230,4,0,2,6,114.779999999999,True
A-5750,"3-hydroxy-4-[(E)-2-[2-methoxy-5-methyl-4-(methylsulfamoyl)phenyl]diazen-1-yl]-N-(2-oxo-2,3-dihydro-1H-1,3-benzodiazol-5-yl)naphthalene-2-carboxamide",CN[S](=O)(=O)c1cc(OC)c(N\N=C2/C(=O)C(=Cc3ccccc23)C(=O)Nc4ccc5NC(=O)Nc5c4)cc1C,-8.2171679788,560.592,2.50232,151.111299999999,40,8,5,13,7,204,4,0,1,5,174.609999999999,True
A-5755,"butyl 2-[(E)-2-{2-hydroxy-3-[(2-oxo-2,3-dihydro-1H-1,3-benzodiazol-5-yl)carbamoyl]naphthalen-1-yl}diazen-1-yl]benzoate",CCCCOC(=O)c1ccccc1N\N=C2/C(=O)C(=Cc3ccccc23)C(=O)Nc4ccc5NC(=O)Nc5c4,-8.2138073561,523.549,4.2341,148.767299999999,39,7,4,10,8,196,4,0,1,5,145.509999999999,True
A-5759,4-[(E)-2-(4-carbamoylphenyl)diazen-1-yl]-3-hydroxy-N-(2-methoxyphenyl)naphthalene-2-carboxamide,COc1ccccc1NC(=O)C2=Cc3ccccc3C(=N/Nc4ccc(cc4)C(N)=O)/C2=O,-8.1667842337,440.459,3.21509999999999,126.1693,33,6,3,8,6,164,3,0,1,4,122.88,True
A-5785,N-(4-acetamidophenyl)-4-[(5-carbamoyl-2-chlorophenyl)diazenyl]-3-hydroxy-2-naphthamide,CC(=O)Nc1ccc(NC(=O)C2=Cc3ccccc3C(=N/Nc4cc(ccc4Cl)C(N)=O)/C2=O)cc1,-7.30444380679999,501.93,3.8183,138.930999999999,36,6,4,10,6,180,3,0,1,4,142.75,True
A-5812,"2-[(E)-2-(2,5-dichloro-4-{2,5-dichloro-4-[(E)-2-{1-[(2,4-dimethylphenyl)carbamoyl]-2-oxopropyl}diazen-1-yl]phenyl}phenyl)diazen-1-yl]-N-(2,4-dimethylphenyl)-3-oxobutanamide",CC(=O)C(N=Nc1cc(Cl)c(cc1Cl)c2cc(Cl)c(cc2Cl)N=NC(C(C)=O)C(=O)Nc3ccc(C)cc3C)C(=O)Nc4ccc(C)cc4C,-8.4626870474,754.502,10.5608799999999,198.979399999999,50,8,2,14,11,258,4,0,0,4,141.779999999999,True
A-5813,2-[(E)-2-(2-chloro-4-{3-chloro-4-[(E)-2-{1-[(2-methoxyphenyl)carbamoyl]-2-oxopropyl}diazen-1-yl]phenyl}phenyl)diazen-1-yl]-N-(2-methoxyphenyl)-3-oxobutanamide,COc1ccccc1NC(=O)C(N=Nc2ccc(cc2Cl)c3ccc(N=NC(C(C)=O)C(=O)Nc4ccccc4OC)c(Cl)c3)C(C)=O,-8.4235961938,689.556,8.0376,183.115399999999,48,10,2,14,13,246,4,0,0,4,160.239999999999,True
A-5819,"diethyl 4,4'-[(3,3'-dichlorobiphenyl-4,4'-diyl)didiazene-2,1-diyl]bis(5-oxo-1-phenyl-4,5-dihydro-1H-pyrazole-3-carboxylate)",CCOC(=O)C1=NN(C(=O)C1N=Nc2ccc(cc2Cl)c3ccc(N=NC4C(=O)N(N=C4C(=O)OCC)c5ccccc5)c(Cl)c3)c6ccccc6,-8.5265601286,739.576,7.4968,194.497999999999,52,12,0,16,11,262,4,0,2,6,167.379999999999,True
A-5823,"2-[(E)-2-(2-chloro-4-{3-chloro-4-[(E)-2-{1-[(2,4-dimethylphenyl)carbamoyl]-2-oxopropyl}diazen-1-yl]phenyl}phenyl)diazen-1-yl]-N-(2,4-dimethylphenyl)-3-oxobutanamide; N-(4-chloro-2,5-dimethoxyphenyl)-2-[(E)-2-(2-chloro-4-{3-chloro-4-[(E)-2-{1-[(2,4-dimethylphenyl)carbamoyl]-2-oxopropyl}diazen-1-yl]phenyl}phenyl)diazen-1-yl]-3-oxobutanamide; N-(4-chloro-2,5-dimethoxyphenyl)-2-[(E)-2-(2-chloro-4-{3-chloro-4-[(E)-2-{1-[(4-chloro-2,5-dimethoxyphenyl)carbamoyl]-2-oxopropyl}diazen-1-yl]phenyl}phenyl)diazen-1-yl]-3-oxobutanamide",COc1cc(NC(=O)C(N=Nc2ccc(cc2Cl)c3ccc(N=NC(C(C)=O)C(=O)Nc4ccc(C)cc4C)c(Cl)c3)C(C)=O)c(OC)cc1Cl.COc5cc(NC(=O)C(N=Nc6ccc(cc6Cl)c7ccc(N=NC(C(C)=O)C(=O)Nc8cc(OC)c(Cl)cc8OC)c(Cl)c7)C(C)=O)c(OC)cc5Cl.CC(=O)C(N=Nc9ccc(cc9Cl)c%10ccc(N=NC(C(C)=O)C(=O)Nc%11ccc(C)cc%11C)c(Cl)c%10)C(=O)Nc%12ccc(C)cc%12C,-9.052340862,2256.16499999999,27.92352,592.798200000002,153,30,6,45,39,792,12,0,0,12,480.719999999999,True
A-5829,2-[(E)-2-(4-chloro-2-nitrophenyl)diazen-1-yl]-N-(2-methoxyphenyl)-3-oxobutanamide,COc1ccccc1NC(=O)C(N=Nc2ccc(Cl)cc2[N+]([O-])=O)C(C)=O,-7.3063783536,390.783,3.9368,98.7151,27,7,1,10,7,140,2,0,0,2,123.259999999999,True
A-5835,"4-[(E)-2-[2-chloro-5-(trifluoromethyl)phenyl]diazen-1-yl]-N-(2,5-dichloro-4-{4-[(E)-2-[2-chloro-5-(trifluoromethyl)phenyl]diazen-1-yl]-3-hydroxynaphthalene-2-amido}phenyl)-3-hydroxynaphthalene-2-carboxamide",FC(F)(F)c1ccc(Cl)c(N\N=C2/C(=O)C(=Cc3ccccc23)C(=O)Nc4cc(Cl)c(NC(=O)C5=Cc6ccccc6C(=N/Nc7cc(ccc7Cl)C(F)(F)F)\C5=O)cc4Cl)c1,-7.6922433716,930.476,11.1797999999999,225.800799999999,62,8,4,20,8,314,5,0,2,7,141.12,True
A-5839,"2-[(E)-2-{2-oxo-1-[(2-oxo-2,3-dihydro-1H-1,3-benzodiazol-5-yl)carbamoyl]propyl}diazen-1-yl]benzoic acid",CC(=O)C(N=Nc1ccccc1C(O)=O)C(=O)Nc2ccc3NC(=O)Nc3c2,-7.3309014707,381.348,2.2344,99.9354,28,6,4,10,6,142,3,0,0,3,156.839999999999,True
A-5841,"2,2'-[ethylenebis(oxyphenyl-2,1-eneazo)]bis[N-(2,3-dihydro-2-oxo-1H-benzimidazol-5-yl)-3-oxobutyramide",CC(=O)C(N=Nc1ccccc1OCCOc2ccccc2N=NC(C(C)=O)C(=O)Nc3ccc4NC(=O)Nc4c3)C(=O)Nc5ccc6NC(=O)Nc6c5,-7.6344855683,732.713999999999,4.8436,196.942199999999,54,12,6,18,15,274,6,0,0,6,257.539999999999,True
A-5842,"4-[(E)-2-(2,5-dichlorophenyl)diazen-1-yl]-3-hydroxy-N-(2-oxo-2,3-dihydro-1H-1,3-benzodiazol-5-yl)naphthalene-2-carboxamide",Clc1ccc(Cl)c(N\N=C2/C(=O)C(=Cc3ccccc23)C(=O)Nc4ccc5NC(=O)Nc5c4)c1,-7.46180032179999,492.322,4.584,133.596799999999,34,5,4,10,4,168,4,0,1,5,119.209999999999,True
A-5843,calcium bis(4-[(E)-2-{1-[(2-chlorophenyl)carbamoyl]-2-oxopropyl}diazen-1-yl]-3-nitrobenzene-1-sulfonate),[Ca++].CC(=O)C(N=Nc1ccc(cc1[N+]([O-])=O)[S]([O-])(=O)=O)C(=O)Nc2ccccc2Cl,-5.4514607628,479.891,2.4515,105.880299999999,30,9,1,14,7,152,2,0,0,2,171.23,True
A-5854,Solvent orange 60,O=C1N2c3cccc4cccc(N=C2c5ccccc15)c34,-7.255740326,270.291,3.8584,82.4035,21,3,0,3,0,98,4,0,1,5,34.89,True
A-5864,"3-oxo-N-(2-oxo-2,3-dihydro-1H-1,3-benzodiazol-5-yl)-2-[(E)-2-[2-(trifluoromethyl)phenyl]diazen-1-yl]butanamide",CC(=O)C(N=Nc1ccccc1C(F)(F)F)C(=O)Nc2ccc3NC(=O)Nc3c2,-7.45552683299999,405.336,3.555,97.9781,29,5,3,11,5,150,3,0,0,3,119.539999999999,True
A-5865,"bis(2-chloroethyl) 3,3'-[(2,5-dimethyl-p-phenylene)bis[iminocarbonyl(2-hydroxy-1,3-naphthylene)azo]]di-p-toluate",Cc1ccc(cc1N\N=C2\C(=O)C(=Cc3ccccc23)C(=O)Nc4cc(C)c(NC(=O)C5=Cc6ccccc6C(=N/Nc7c(C)cccc7C(=O)OCCCl)/C5=O)cc4C)C(=O)OCCCl,-7.8142410285,925.825999999999,8.55348,256.709799999999,66,12,4,16,14,334,5,0,2,7,193.719999999999,True
A-5866,"2-[(E)-2-(4-chloro-2-nitrophenyl)diazen-1-yl]-3-oxo-N-(2-oxo-2,3-dihydro-1H-1,3-benzodiazol-5-yl)butanamide",CC(=O)C(N=Nc1ccc(Cl)cc1[N+]([O-])=O)C(=O)Nc2ccc3NC(=O)Nc3c2,-7.47377987669999,416.781,3.09779999999999,104.6405,29,7,3,12,6,148,3,0,0,3,162.679999999999,True
A-5875,2-[(E)-2-(4-methyl-2-nitrophenyl)diazen-1-yl]-3-oxo-N-phenylbutanamide,CC(=O)C(N=Nc1ccc(C)cc1[N+]([O-])=O)C(=O)Nc2ccccc2,-7.4179683662,340.339,3.58322,91.8901,25,6,1,8,6,128,2,0,0,2,114.03,True
A-5884,4-[(4-chloro-2-nitrophenyl)diazenyl]-3-hydroxy-N-(2-methylphenyl)-2-naphthamide,Cc1ccccc1NC(=O)C2=Cc3ccccc3C(=N/Nc4ccc(Cl)cc4[N+]([O-])=O)/C2=O,-7.5632144901,460.877,4.97762,127.5008,33,6,2,9,5,164,3,0,1,4,113.699999999999,True
A-5894,"calcium bis(3-(3-{2-[(1Z)-3-[(4-methoxyphenyl)carbamoyl]-2-oxo-1,2-dihydronaphthalen-1-ylidene]hydrazin-1-yl}-4-methylbenzamido)benzene-1-sulfonate)",[Ca++].COc1ccc(NC(=O)C2=Cc3ccccc3/C(=N/Nc4cc(ccc4C)C(=O)Nc5cccc(c5)[S]([O-])(=O)=O)C2=O)cc1.COc6ccc(NC(=O)C7=Cc8ccccc8/C(=N/Nc9cc(ccc9C)C(=O)Nc%10cccc(c%10)[S]([O-])(=O)=O)C7=O)cc6,-7.05093118269999,1259.358,8.78124,335.2476,89,18,6,25,16,444,8,0,2,10,332.179999999999,True
A-5895,4-[(E)-2-(4-carbamoylphenyl)diazen-1-yl]-N-(2-ethoxyphenyl)-3-hydroxynaphthalene-2-carboxamide,CCOc1ccccc1NC(=O)C2=Cc3ccccc3C(=N/Nc4ccc(cc4)C(N)=O)\C2=O,-7.5819735484,454.486,3.6052,130.7863,34,6,3,8,7,170,3,0,1,4,122.88,True
A-5896,3-hydroxy-4-[(2-methyl-5-nitrophenyl)diazenyl]-N-phenyl-2-naphthamide,Cc1ccc(cc1N\N=C2/C(=O)C(=Cc3ccccc23)C(=O)Nc4ccccc4)[N+]([O-])=O,-7.5579677799,426.432,4.32422,122.4908,32,6,2,8,5,158,3,0,1,4,113.7,True
A-5898,"2-[(E)-2-(4-nitrophenyl)diazen-1-yl]-3-oxo-N-(2-oxo-2,3-dihydro-1H-1,3-benzodiazol-5-yl)butanamide",CC(=O)C(N=Nc1ccc(cc1)[N+]([O-])=O)C(=O)Nc2ccc3NC(=O)Nc3c2,-7.5255403409,382.336,2.4444,99.6305,28,7,3,11,6,142,3,0,0,3,162.679999999999,True
A-5899,"N-(3-chloro-4-{4-[(E)-2-(2,5-dichlorophenyl)diazen-1-yl]-3-hydroxynaphthalene-2-amido}phenyl)-4-[(E)-2-(2,5-dichlorophenyl)diazen-1-yl]-3-hydroxynaphthalene-2-carboxamide",Clc1ccc(Cl)c(N\N=C2\C(=O)C(=Cc3ccccc23)C(=O)Nc4ccc(NC(=O)C5=Cc6ccccc6C(=N/Nc7cc(Cl)ccc7Cl)\C5=O)c(Cl)c4)c1,-7.86929826309999,828.926999999999,9.79559999999999,220.806799999999,55,8,4,15,8,272,5,0,2,7,141.12,True
A-5909,"N-(4-carbamoylphenyl)-4-[(E)-2-{2-oxo-1-[(2-oxo-2,3-dihydro-1H-1,3-benzodiazol-5-yl)carbamoyl]propyl}diazen-1-yl]benzamide",CC(=O)C(N=Nc1ccc(cc1)C(=O)Nc2ccc(cc2)C(N)=O)C(=O)Nc3ccc4NC(=O)Nc4c3,-6.67280880559999,499.487,2.88739999999999,135.8892,37,7,5,12,8,186,4,0,0,4,191.729999999999,True
A-5918,"2,2'-[(3,3'-dichlorobiphenyl-4,4'-diyl)didiazene-2,1-diyl]bis[N-(4-ethoxyphenyl)-3-oxobutanamide]",CCOc1ccc(NC(=O)C(N=Nc2ccc(cc2Cl)c3ccc(N=NC(C(C)=O)C(=O)Nc4ccc(OCC)cc4)c(Cl)c3)C(C)=O)cc1,-7.83058261679999,717.61,8.8178,192.349399999999,50,10,2,14,15,258,4,0,0,4,160.239999999999,True
A-5921,4-chloro-N-(3-chloro-2-methylphenyl)-3-[(E)-2-{1-[(5-chloro-4-{2-[(E)-2-{2-chloro-5-[(3-chloro-2-methylphenyl)carbamoyl]phenyl}diazen-1-yl]-3-oxobutanamido}-2-methylphenyl)carbamoyl]-2-oxopropyl}diazen-1-yl]benzamide,CC(=O)C(N=Nc1cc(ccc1Cl)C(=O)Nc2cccc(Cl)c2C)C(=O)Nc3cc(Cl)c(NC(=O)C(N=Nc4cc(ccc4Cl)C(=O)Nc5cccc(Cl)c5C)C(C)=O)cc3C,-7.9717711074,937.067999999999,11.7434599999999,242.606799999999,62,10,4,19,14,318,5,0,0,5,199.98,True
A-5922,N-(5-chloro-2-methylphenyl)-3-hydroxy-4-[(E)-2-[2-methoxy-5-(phenylcarbamoyl)phenyl]diazen-1-yl]naphthalene-2-carboxamide,COc1ccc(cc1N\N=C2/C(=O)C(=Cc3ccccc23)C(=O)Nc4cc(Cl)ccc4C)C(=O)Nc5ccccc5,-7.7520707385,565.029,6.33032,161.793599999999,41,6,3,9,7,204,4,0,1,5,108.889999999999,True
A-5924,2-[(E)-2-(4-methoxy-2-nitrophenyl)diazen-1-yl]-N-(2-methoxyphenyl)-3-oxobutanamide,COc1ccc(N=NC(C(C)=O)C(=O)Nc2ccccc2OC)c(c1)[N+]([O-])=O,-8.3082430527,386.364,3.292,100.2571,28,8,1,10,8,146,2,0,0,2,132.49,True
A-5925,"3-hydroxy-4-[(E)-2-[2-methoxy-5-(phenylcarbamoyl)phenyl]diazen-1-yl]-N-(2-oxo-2,3-dihydro-1H-1,3-benzodiazol-5-yl)naphthalene-2-carboxamide",COc1ccc(cc1N\N=C2/C(=O)C(=Cc3ccccc23)C(=O)Nc4ccc5NC(=O)Nc5c4)C(=O)Nc6ccccc6,-8.4790833317,572.581,4.5381,164.523999999999,43,7,5,11,7,212,5,0,1,6,157.539999999999,True
A-5929,"4-[(E)-2-(2,5-dichlorophenyl)diazen-1-yl]-3-hydroxy-N-(2-methoxyphenyl)naphthalene-2-carboxamide",COc1ccccc1NC(=O)C2=Cc3ccccc3C(=N/Nc4cc(Cl)ccc4Cl)\C2=O,-8.4645677849,466.324,5.423,127.6714,32,5,2,8,5,160,3,0,1,4,79.7899999999999,True
A-5930,"2-{[(2-{[3-(3,5-di-tert-butyl-4-hydroxyphenyl)propanoyl]oxy}ethyl)carbamoyl]formamido}ethyl 3-(3,5-di-tert-butyl-4-hydroxyphenyl)propanoate",CC(C)(C)c1cc(CCC(=O)OCCNC(=O)C(=O)NCCOC(=O)CCc2cc(c(O)c(c2)C(C)(C)C)C(C)(C)C)cc(c1O)C(C)(C)C,-8.6670954079,696.926,6.172,195.592999999999,50,8,4,10,12,278,2,0,0,2,151.26,True
A-5940,2-[(E)-2-(2-chloro-4-{3-chloro-4-[(E)-2-{1-[(2-methylphenyl)carbamoyl]-2-oxopropyl}diazen-1-yl]phenyl}phenyl)diazen-1-yl]-N-(2-methylphenyl)-3-oxobutanamide,CC(=O)C(N=Nc1ccc(cc1Cl)c2ccc(N=NC(C(C)=O)C(=O)Nc3ccccc3C)c(Cl)c2)C(=O)Nc4ccccc4C,-8.9148440789,657.558,8.63724,179.485399999999,46,8,2,12,11,234,4,0,0,4,141.779999999999,True
A-5951,"4-[(E)-2-(2,3-dichlorophenyl)diazen-1-yl]-N-(5-{4-[(E)-2-(2,3-dichlorophenyl)diazen-1-yl]-3-hydroxynaphthalene-2-amido}naphthalen-1-yl)-3-hydroxynaphthalene-2-carboxamide",Clc1cccc(N\N=C2/C(=O)C(=Cc3ccccc23)C(=O)Nc4cccc5c(NC(=O)C6=Cc7ccccc7C(=N/Nc8cccc(Cl)c8Cl)\C6=O)cccc45)c1Cl,-9.22765124799999,844.541999999999,10.2953999999999,233.302799999999,58,8,4,14,8,284,6,0,2,8,141.12,True
A-5954,2-{2-[2-chloro-4-(3-chloro-4-{2-[2-oxo-1-(phenylcarbamoyl)propyl]diazen-1-yl}phenyl)phenyl]diazen-1-yl}-3-oxo-N-phenylbutanamide,CC(=O)C(N=Nc1ccc(cc1Cl)c2ccc(N=NC(C(C)=O)C(=O)Nc3ccccc3)c(Cl)c2)C(=O)Nc4ccccc4,-9.1969385027,629.504,8.0204,170.011399999999,44,8,2,12,11,222,4,0,0,4,141.779999999999,True
A-5959,"2-[(E)-2-(2-chloro-4-{3-chloro-4-[(E)-2-{1-[(2,4-dimethylphenyl)carbamoyl]-2-oxopropyl}diazen-1-yl]phenyl}phenyl)diazen-1-yl]-N-(2,4-dimethylphenyl)-3-oxobutanamide",CC(=O)C(N=Nc1ccc(cc1Cl)c2ccc(N=NC(C(C)=O)C(=O)Nc3ccc(C)cc3C)c(Cl)c2)C(=O)Nc4ccc(C)cc4C,-9.2920103659,685.612,9.25408,188.959399999999,48,8,2,12,11,246,4,0,0,4,141.779999999999,True
A-5996,"5-[(E)-2-(6-methyl-2-oxo-2,3-dihydro-1H-1,3-benzodiazol-5-yl)diazen-1-yl]-1,3-diazinane-2,4,6-trione",CC1=CC2=NC(=O)N=C2C=C1NNC3C(=O)NC(=O)NC3=O,-6.4891402338,302.25,-1.98107999999999,71.1148,22,6,4,10,3,112,1,1,2,3,141.119999999999,True
A-5998,C.i. Pigment Red 179,CN1C(=O)c2ccc3c4ccc5C(=O)N(C)C(=O)c6ccc(c7ccc(C1=O)c2c37)c4c56,-7.7185099927,418.408,3.037,128.058,32,6,0,6,0,152,7,0,0,7,78.14,True
A-5999,"2-(3-Methoxypropyl)-9(or 10)-methylbenzimidazo(2,1-b)benzo(lmn)(3,8)phenanthroline-1,3,6(2H)-trione",COCCCN1C(=O)c2ccc3C(=O)n4c5ccc(C)cc5nc4c6ccc(C1=O)c2c36,-6.77150990679999,425.444,3.04972,125.618,32,7,0,7,4,158,6,0,0,6,82.6699999999999,True
A-6004,"N-{5-[bis(prop-2-en-1-yl)amino]-2-[(E)-2-(2-bromo-4,6-dinitrophenyl)diazen-1-yl]-4-methoxyphenyl}acetamide",COc1cc(N=Nc2c(Br)cc(cc2[N+]([O-])=O)[N+]([O-])=O)c(NC(C)=O)cc1N(CC=C)CC=C,-7.0093328393,533.339,5.8263,131.5315,34,9,1,13,11,178,2,0,0,2,152.57,True
A-6021,"N-{2-[(E)-2-(2-chloro-4,6-dinitrophenyl)diazen-1-yl]-5-(diethylamino)phenyl}acetamide",CCN(CC)c1ccc(N=Nc2c(Cl)cc(cc2[N+]([O-])=O)[N+]([O-])=O)c(NC(C)=O)c1,-7.1158852536,434.84,5.3764,113.2435,30,8,1,12,8,158,2,0,0,2,143.34,True
A-6025,"N-{2-[(E)-2-(2,6-dicyano-4-nitrophenyl)diazen-1-yl]-5-(diethylamino)phenyl}acetamide",CCN(CC)c1ccc(N=Nc2c(cc(cc2C#N)[N+]([O-])=O)C#N)c(NC(C)=O)c1,-8.1027530485,405.418,4.55816,111.0091,30,8,1,10,7,152,2,0,0,2,147.779999999999,True
A-6031,"3,3'-[(2-chloro-5-methyl-p-phenylene)bis[imino(1-acetyl-2-oxoethylene)azo]]bis[4-chloro-N-[2-(4-chlorophenoxy)-5-(trifluoromethyl)phenyl]benzamide]",CC(=O)C(N=Nc1cc(ccc1Cl)C(=O)Nc2cc(ccc2Oc3ccc(Cl)cc3)C(F)(F)F)C(=O)Nc4cc(Cl)c(NC(=O)C(N=Nc5cc(ccc5Cl)C(=O)Nc6cc(ccc6Oc7ccc(Cl)cc7)C(F)(F)F)C(C)=O)cc4C,-7.6916832495,1229.20199999999,16.7488199999999,296.1688,82,12,4,27,18,422,7,0,0,7,218.44,True
A-6033,"methyl 3-({4-[(E)-2-(2,4-dinitrophenyl)diazen-1-yl]-3-acetamidophenyl}(3-methoxy-3-oxopropyl)amino)propanoate",COC(=O)CCN(CCC(=O)OC)c1ccc(N=Nc2ccc(cc2[N+]([O-])=O)[N+]([O-])=O)c(NC(C)=O)c1,-7.3328313355,516.467,3.8094,130.1515,37,12,1,15,12,196,2,0,0,2,195.94,True
A-6037,"N-{2-[(E)-2-(2-bromo-4,6-dinitrophenyl)diazen-1-yl]-5-(diethylamino)phenyl}acetamide",CCN(CC)c1ccc(N=Nc2c(Br)cc(cc2[N+]([O-])=O)[N+]([O-])=O)c(NC(C)=O)c1,-7.3795692783,479.291,5.4855,115.9335,30,8,1,12,8,158,2,0,0,2,143.34,True
A-6040,"2,9-Bis(2-phenylethyl)anthra(2,1,9-def:6,5,10-d'e'f')diisoquinoline-1,3,8,10(2H,9H)-tetrone",O=C1N(CCc2ccccc2)C(=O)c3ccc4c5ccc6C(=O)N(CCc7ccccc7)C(=O)c8ccc(c9ccc1c3c49)c5c68,-8.4761487948,598.658,6.4484,186.387999999999,46,6,0,6,6,220,9,0,0,9,78.14,True
A-6048,"4,5,6,7-tetrachloro-2-[2-(4,5,6,7-tetrachloro-1,3-dioxo-2,3-dihydro-1H-inden-2-yl)quinolin-8-yl]-2,3-dihydro-1H-isoindole-1,3-dione",Clc1c(Cl)c(Cl)c2C(=O)C(c3ccc4cccc(N5C(=O)c6c(Cl)c(Cl)c(Cl)c(Cl)c6C5=O)c4n3)C(=O)c2c1Cl,-7.7273960926,693.968,9.42539999999999,157.248999999999,40,5,0,14,2,200,4,0,2,6,84.41,True
A-6056,"(4E)-4-[(5-chloro-2-methylphenyl)hydrazinylidene]-N-[4-[[(4Z)-4-[(5-chloro-2-methylphenyl)hydrazinylidene]-3-oxonaphthalene-2-carbonyl]amino]-2,5-dimethylphenyl]-3-oxonaphthalene-2-carboxamide",Cc1ccc(Cl)cc1N\N=C2\C(=O)C(=Cc3ccccc23)C(=O)Nc4cc(C)c(NC(=O)C5=Cc6ccccc6C(=N/Nc7cc(Cl)ccc7C)/C5=O)cc4C,-7.67819626389999,781.699999999999,9.06908,224.724799999999,56,8,4,12,8,278,5,0,2,7,141.12,True
A-6058,"2-cyano-N-methyl-2-[(1E)-3-(2,4,6-trioxo-1,3-diazinan-5-ylidene)-2,3-dihydro-1H-isoindol-1-ylidene]acetamide",CNC(=O)/C(C#N)=C/1NC(c2ccccc12)=C3C(=O)NC(=O)NC3=O,-7.5280099033,337.295,-1.89511999999999,85.7258,25,5,4,9,1,124,2,1,1,3,143.95,True
A-6060,"5-[3-(2,4,6-trioxo-1,3-diazinan-5-ylidene)-2,3-dihydro-1H-isoindol-1-ylidene]-1,3-diazinane-2,4,6-trione",O=C1NC(=O)C(C(=O)N1)=C2NC(c3ccccc23)=C4C(=O)NC(=O)NC4=O,-7.5649937324,367.277,-2.79869999999999,87.7275,27,6,5,11,0,134,2,2,2,4,166.329999999999,True
A-6072,2-[(E)-2-(3-chloro-4-{3-chloro-4-[(E)-2-[1-(hydrazinecarbonyl)-2-oxopropyl]diazen-1-yl]phenyl}phenyl)diazen-1-yl]-3-oxobutanehydrazide,CC(=O)C(N=Nc1ccc(c(Cl)c1)c2ccc(N=NC(C(C)=O)C(=O)NN)c(Cl)c2)C(=O)NN,-8.7052973925,507.338,2.7228,124.5282,34,10,4,14,9,178,2,0,0,2,193.82,True
A-6091,"3-{2-[(3Z)-5-cyano-1,4-dimethyl-2,6-dioxo-1,2,3,6-tetrahydropyridin-3-ylidene]hydrazin-1-yl}phenyl benzenesulfonate",CN1C(=O)C(=N/Nc2cccc(O[S](=O)(=O)c3ccccc3)c2)\C(=C(C#N)C1=O)C,-8.7827162194,424.438,2.06088,107.8455,30,8,1,10,5,152,2,0,1,3,128.929999999999,True